# vtk DataFile Version 5.1
vtk output
ASCII
DATASET UNSTRUCTURED_GRID
POINTS 9261 float
0 0 -30 1 0 -30 2 0 -30 
3 0 -30 4 0 -30 5 0 -30 
6 0 -30 7 0 -30 8 0 -30 
9 0 -30 10 0 -30 11 0 -30 
12 0 -30 13 0 -30 14 0 -30 
15 0 -30 16 0 -30 17 0 -30 
18 0 -30 19 0 -30 20 0 -30 
0 1 -30 1 1 -30 2 1 -30 
3 1 -30 4 1 -30 5 1 -30 
6 1 -30 7 1 -30 8 1 -30 
9 1 -30 10 1 -30 11 1 -30 
12 1 -30 13 1 -30 14 1 -30 
15 1 -30 16 1 -30 17 1 -30 
18 1 -30 19 1 -30 20 1 -30 
0 2 -30 1 2 -30 2 2 -30 
3 2 -30 4 2 -30 5 2 -30 
6 2 -30 7 2 -30 8 2 -30 
9 2 -30 10 2 -30 11 2 -30 
12 2 -30 13 2 -30 14 2 -30 
15 2 -30 16 2 -30 17 2 -30 
18 2 -30 19 2 -30 20 2 -30 
0 3 -30 1 3 -30 2 3 -30 
3 3 -30 4 3 -30 5 3 -30 
6 3 -30 7 3 -30 8 3 -30 
9 3 -30 10 3 -30 11 3 -30 
12 3 -30 13 3 -30 14 3 -30 
15 3 -30 16 3 -30 17 3 -30 
18 3 -30 19 3 -30 20 3 -30 
0 4 -30 1 4 -30 2 4 -30 
3 4 -30 4 4 -30 5 4 -30 
6 4 -30 7 4 -30 8 4 -30 
9 4 -30 10 4 -30 11 4 -30 
12 4 -30 13 4 -30 14 4 -30 
15 4 -30 16 4 -30 17 4 -30 
18 4 -30 19 4 -30 20 4 -30 
0 5 -30 1 5 -30 2 5 -30 
3 5 -30 4 5 -30 5 5 -30 
6 5 -30 7 5 -30 8 5 -30 
9 5 -30 10 5 -30 11 5 -30 
12 5 -30 13 5 -30 14 5 -30 
15 5 -30 16 5 -30 17 5 -30 
18 5 -30 19 5 -30 20 5 -30 
0 6 -30 1 6 -30 2 6 -30 
3 6 -30 4 6 -30 5 6 -30 
6 6 -30 7 6 -30 8 6 -30 
9 6 -30 10 6 -30 11 6 -30 
12 6 -30 13 6 -30 14 6 -30 
15 6 -30 16 6 -30 17 6 -30 
18 6 -30 19 6 -30 20 6 -30 
0 7 -30 1 7 -30 2 7 -30 
3 7 -30 4 7 -30 5 7 -30 
6 7 -30 7 7 -30 8 7 -30 
9 7 -30 10 7 -30 11 7 -30 
12 7 -30 13 7 -30 14 7 -30 
15 7 -30 16 7 -30 17 7 -30 
18 7 -30 19 7 -30 20 7 -30 
0 8 -30 1 8 -30 2 8 -30 
3 8 -30 4 8 -30 5 8 -30 
6 8 -30 7 8 -30 8 8 -30 
9 8 -30 10 8 -30 11 8 -30 
12 8 -30 13 8 -30 14 8 -30 
15 8 -30 16 8 -30 17 8 -30 
18 8 -30 19 8 -30 20 8 -30 
0 9 -30 1 9 -30 2 9 -30 
3 9 -30 4 9 -30 5 9 -30 
6 9 -30 7 9 -30 8 9 -30 
9 9 -30 10 9 -30 11 9 -30 
12 9 -30 13 9 -30 14 9 -30 
15 9 -30 16 9 -30 17 9 -30 
18 9 -30 19 9 -30 20 9 -30 
0 10 -30 1 10 -30 2 10 -30 
3 10 -30 4 10 -30 5 10 -30 
6 10 -30 7 10 -30 8 10 -30 
9 10 -30 10 10 -30 11 10 -30 
12 10 -30 13 10 -30 14 10 -30 
15 10 -30 16 10 -30 17 10 -30 
18 10 -30 19 10 -30 20 10 -30 
0 11 -30 1 11 -30 2 11 -30 
3 11 -30 4 11 -30 5 11 -30 
6 11 -30 7 11 -30 8 11 -30 
9 11 -30 10 11 -30 11 11 -30 
12 11 -30 13 11 -30 14 11 -30 
15 11 -30 16 11 -30 17 11 -30 
18 11 -30 19 11 -30 20 11 -30 
0 12 -30 1 12 -30 2 12 -30 
3 12 -30 4 12 -30 5 12 -30 
6 12 -30 7 12 -30 8 12 -30 
9 12 -30 10 12 -30 11 12 -30 
12 12 -30 13 12 -30 14 12 -30 
15 12 -30 16 12 -30 17 12 -30 
18 12 -30 19 12 -30 20 12 -30 
0 13 -30 1 13 -30 2 13 -30 
3 13 -30 4 13 -30 5 13 -30 
6 13 -30 7 13 -30 8 13 -30 
9 13 -30 10 13 -30 11 13 -30 
12 13 -30 13 13 -30 14 13 -30 
15 13 -30 16 13 -30 17 13 -30 
18 13 -30 19 13 -30 20 13 -30 
0 14 -30 1 14 -30 2 14 -30 
3 14 -30 4 14 -30 5 14 -30 
6 14 -30 7 14 -30 8 14 -30 
9 14 -30 10 14 -30 11 14 -30 
12 14 -30 13 14 -30 14 14 -30 
15 14 -30 16 14 -30 17 14 -30 
18 14 -30 19 14 -30 20 14 -30 
0 15 -30 1 15 -30 2 15 -30 
3 15 -30 4 15 -30 5 15 -30 
6 15 -30 7 15 -30 8 15 -30 
9 15 -30 10 15 -30 11 15 -30 
12 15 -30 13 15 -30 14 15 -30 
15 15 -30 16 15 -30 17 15 -30 
18 15 -30 19 15 -30 20 15 -30 
0 16 -30 1 16 -30 2 16 -30 
3 16 -30 4 16 -30 5 16 -30 
6 16 -30 7 16 -30 8 16 -30 
9 16 -30 10 16 -30 11 16 -30 
12 16 -30 13 16 -30 14 16 -30 
15 16 -30 16 16 -30 17 16 -30 
18 16 -30 19 16 -30 20 16 -30 
0 17 -30 1 17 -30 2 17 -30 
3 17 -30 4 17 -30 5 17 -30 
6 17 -30 7 17 -30 8 17 -30 
9 17 -30 10 17 -30 11 17 -30 
12 17 -30 13 17 -30 14 17 -30 
15 17 -30 16 17 -30 17 17 -30 
18 17 -30 19 17 -30 20 17 -30 
0 18 -30 1 18 -30 2 18 -30 
3 18 -30 4 18 -30 5 18 -30 
6 18 -30 7 18 -30 8 18 -30 
9 18 -30 10 18 -30 11 18 -30 
12 18 -30 13 18 -30 14 18 -30 
15 18 -30 16 18 -30 17 18 -30 
18 18 -30 19 18 -30 20 18 -30 
0 19 -30 1 19 -30 2 19 -30 
3 19 -30 4 19 -30 5 19 -30 
6 19 -30 7 19 -30 8 19 -30 
9 19 -30 10 19 -30 11 19 -30 
12 19 -30 13 19 -30 14 19 -30 
15 19 -30 16 19 -30 17 19 -30 
18 19 -30 19 19 -30 20 19 -30 
0 20 -30 1 20 -30 2 20 -30 
3 20 -30 4 20 -30 5 20 -30 
6 20 -30 7 20 -30 8 20 -30 
9 20 -30 10 20 -30 11 20 -30 
12 20 -30 13 20 -30 14 20 -30 
15 20 -30 16 20 -30 17 20 -30 
18 20 -30 19 20 -30 20 20 -30 
0 0 -28.5 1 0 -28.5 2 0 -28.5 
3 0 -28.5 4 0 -28.5 5 0 -28.5 
6 0 -28.5 7 0 -28.5 8 0 -28.5 
9 0 -28.5 10 0 -28.5 11 0 -28.5 
12 0 -28.5 13 0 -28.5 14 0 -28.5 
15 0 -28.5 16 0 -28.5 17 0 -28.5 
18 0 -28.5 19 0 -28.5 20 0 -28.5 
0 1 -28.5 1 1 -28.5 2 1 -28.5 
3 1 -28.5 4 1 -28.5 5 1 -28.5 
6 1 -28.5 7 1 -28.5 8 1 -28.5 
9 1 -28.5 10 1 -28.5 11 1 -28.5 
12 1 -28.5 13 1 -28.5 14 1 -28.5 
15 1 -28.5 16 1 -28.5 17 1 -28.5 
18 1 -28.5 19 1 -28.5 20 1 -28.5 
0 2 -28.5 1 2 -28.5 2 2 -28.5 
3 2 -28.5 4 2 -28.5 5 2 -28.5 
6 2 -28.5 7 2 -28.5 8 2 -28.5 
9 2 -28.5 10 2 -28.5 11 2 -28.5 
12 2 -28.5 13 2 -28.5 14 2 -28.5 
15 2 -28.5 16 2 -28.5 17 2 -28.5 
18 2 -28.5 19 2 -28.5 20 2 -28.5 
0 3 -28.5 1 3 -28.5 2 3 -28.5 
3 3 -28.5 4 3 -28.5 5 3 -28.5 
6 3 -28.5 7 3 -28.5 8 3 -28.5 
9 3 -28.5 10 3 -28.5 11 3 -28.5 
12 3 -28.5 13 3 -28.5 14 3 -28.5 
15 3 -28.5 16 3 -28.5 17 3 -28.5 
18 3 -28.5 19 3 -28.5 20 3 -28.5 
0 4 -28.5 1 4 -28.5 2 4 -28.5 
3 4 -28.5 4 4 -28.5 5 4 -28.5 
6 4 -28.5 7 4 -28.5 8 4 -28.5 
9 4 -28.5 10 4 -28.5 11 4 -28.5 
12 4 -28.5 13 4 -28.5 14 4 -28.5 
15 4 -28.5 16 4 -28.5 17 4 -28.5 
18 4 -28.5 19 4 -28.5 20 4 -28.5 
0 5 -28.5 1 5 -28.5 2 5 -28.5 
3 5 -28.5 4 5 -28.5 5 5 -28.5 
6 5 -28.5 7 5 -28.5 8 5 -28.5 
9 5 -28.5 10 5 -28.5 11 5 -28.5 
12 5 -28.5 13 5 -28.5 14 5 -28.5 
15 5 -28.5 16 5 -28.5 17 5 -28.5 
18 5 -28.5 19 5 -28.5 20 5 -28.5 
0 6 -28.5 1 6 -28.5 2 6 -28.5 
3 6 -28.5 4 6 -28.5 5 6 -28.5 
6 6 -28.5 7 6 -28.5 8 6 -28.5 
9 6 -28.5 10 6 -28.5 11 6 -28.5 
12 6 -28.5 13 6 -28.5 14 6 -28.5 
15 6 -28.5 16 6 -28.5 17 6 -28.5 
18 6 -28.5 19 6 -28.5 20 6 -28.5 
0 7 -28.5 1 7 -28.5 2 7 -28.5 
3 7 -28.5 4 7 -28.5 5 7 -28.5 
6 7 -28.5 7 7 -28.5 8 7 -28.5 
9 7 -28.5 10 7 -28.5 11 7 -28.5 
12 7 -28.5 13 7 -28.5 14 7 -28.5 
15 7 -28.5 16 7 -28.5 17 7 -28.5 
18 7 -28.5 19 7 -28.5 20 7 -28.5 
0 8 -28.5 1 8 -28.5 2 8 -28.5 
3 8 -28.5 4 8 -28.5 5 8 -28.5 
6 8 -28.5 7 8 -28.5 8 8 -28.5 
9 8 -28.5 10 8 -28.5 11 8 -28.5 
12 8 -28.5 13 8 -28.5 14 8 -28.5 
15 8 -28.5 16 8 -28.5 17 8 -28.5 
18 8 -28.5 19 8 -28.5 20 8 -28.5 
0 9 -28.5 1 9 -28.5 2 9 -28.5 
3 9 -28.5 4 9 -28.5 5 9 -28.5 
6 9 -28.5 7 9 -28.5 8 9 -28.5 
9 9 -28.5 10 9 -28.5 11 9 -28.5 
12 9 -28.5 13 9 -28.5 14 9 -28.5 
15 9 -28.5 16 9 -28.5 17 9 -28.5 
18 9 -28.5 19 9 -28.5 20 9 -28.5 
0 10 -28.5 1 10 -28.5 2 10 -28.5 
3 10 -28.5 4 10 -28.5 5 10 -28.5 
6 10 -28.5 7 10 -28.5 8 10 -28.5 
9 10 -28.5 10 10 -28.5 11 10 -28.5 
12 10 -28.5 13 10 -28.5 14 10 -28.5 
15 10 -28.5 16 10 -28.5 17 10 -28.5 
18 10 -28.5 19 10 -28.5 20 10 -28.5 
0 11 -28.5 1 11 -28.5 2 11 -28.5 
3 11 -28.5 4 11 -28.5 5 11 -28.5 
6 11 -28.5 7 11 -28.5 8 11 -28.5 
9 11 -28.5 10 11 -28.5 11 11 -28.5 
12 11 -28.5 13 11 -28.5 14 11 -28.5 
15 11 -28.5 16 11 -28.5 17 11 -28.5 
18 11 -28.5 19 11 -28.5 20 11 -28.5 
0 12 -28.5 1 12 -28.5 2 12 -28.5 
3 12 -28.5 4 12 -28.5 5 12 -28.5 
6 12 -28.5 7 12 -28.5 8 12 -28.5 
9 12 -28.5 10 12 -28.5 11 12 -28.5 
12 12 -28.5 13 12 -28.5 14 12 -28.5 
15 12 -28.5 16 12 -28.5 17 12 -28.5 
18 12 -28.5 19 12 -28.5 20 12 -28.5 
0 13 -28.5 1 13 -28.5 2 13 -28.5 
3 13 -28.5 4 13 -28.5 5 13 -28.5 
6 13 -28.5 7 13 -28.5 8 13 -28.5 
9 13 -28.5 10 13 -28.5 11 13 -28.5 
12 13 -28.5 13 13 -28.5 14 13 -28.5 
15 13 -28.5 16 13 -28.5 17 13 -28.5 
18 13 -28.5 19 13 -28.5 20 13 -28.5 
0 14 -28.5 1 14 -28.5 2 14 -28.5 
3 14 -28.5 4 14 -28.5 5 14 -28.5 
6 14 -28.5 7 14 -28.5 8 14 -28.5 
9 14 -28.5 10 14 -28.5 11 14 -28.5 
12 14 -28.5 13 14 -28.5 14 14 -28.5 
15 14 -28.5 16 14 -28.5 17 14 -28.5 
18 14 -28.5 19 14 -28.5 20 14 -28.5 
0 15 -28.5 1 15 -28.5 2 15 -28.5 
3 15 -28.5 4 15 -28.5 5 15 -28.5 
6 15 -28.5 7 15 -28.5 8 15 -28.5 
9 15 -28.5 10 15 -28.5 11 15 -28.5 
12 15 -28.5 13 15 -28.5 14 15 -28.5 
15 15 -28.5 16 15 -28.5 17 15 -28.5 
18 15 -28.5 19 15 -28.5 20 15 -28.5 
0 16 -28.5 1 16 -28.5 2 16 -28.5 
3 16 -28.5 4 16 -28.5 5 16 -28.5 
6 16 -28.5 7 16 -28.5 8 16 -28.5 
9 16 -28.5 10 16 -28.5 11 16 -28.5 
12 16 -28.5 13 16 -28.5 14 16 -28.5 
15 16 -28.5 16 16 -28.5 17 16 -28.5 
18 16 -28.5 19 16 -28.5 20 16 -28.5 
0 17 -28.5 1 17 -28.5 2 17 -28.5 
3 17 -28.5 4 17 -28.5 5 17 -28.5 
6 17 -28.5 7 17 -28.5 8 17 -28.5 
9 17 -28.5 10 17 -28.5 11 17 -28.5 
12 17 -28.5 13 17 -28.5 14 17 -28.5 
15 17 -28.5 16 17 -28.5 17 17 -28.5 
18 17 -28.5 19 17 -28.5 20 17 -28.5 
0 18 -28.5 1 18 -28.5 2 18 -28.5 
3 18 -28.5 4 18 -28.5 5 18 -28.5 
6 18 -28.5 7 18 -28.5 8 18 -28.5 
9 18 -28.5 10 18 -28.5 11 18 -28.5 
12 18 -28.5 13 18 -28.5 14 18 -28.5 
15 18 -28.5 16 18 -28.5 17 18 -28.5 
18 18 -28.5 19 18 -28.5 20 18 -28.5 
0 19 -28.5 1 19 -28.5 2 19 -28.5 
3 19 -28.5 4 19 -28.5 5 19 -28.5 
6 19 -28.5 7 19 -28.5 8 19 -28.5 
9 19 -28.5 10 19 -28.5 11 19 -28.5 
12 19 -28.5 13 19 -28.5 14 19 -28.5 
15 19 -28.5 16 19 -28.5 17 19 -28.5 
18 19 -28.5 19 19 -28.5 20 19 -28.5 
0 20 -28.5 1 20 -28.5 2 20 -28.5 
3 20 -28.5 4 20 -28.5 5 20 -28.5 
6 20 -28.5 7 20 -28.5 8 20 -28.5 
9 20 -28.5 10 20 -28.5 11 20 -28.5 
12 20 -28.5 13 20 -28.5 14 20 -28.5 
15 20 -28.5 16 20 -28.5 17 20 -28.5 
18 20 -28.5 19 20 -28.5 20 20 -28.5 
0 0 -27 1 0 -27 2 0 -27 
3 0 -27 4 0 -27 5 0 -27 
6 0 -27 7 0 -27 8 0 -27 
9 0 -27 10 0 -27 11 0 -27 
12 0 -27 13 0 -27 14 0 -27 
15 0 -27 16 0 -27 17 0 -27 
18 0 -27 19 0 -27 20 0 -27 
0 1 -27 1 1 -27 2 1 -27 
3 1 -27 4 1 -27 5 1 -27 
6 1 -27 7 1 -27 8 1 -27 
9 1 -27 10 1 -27 11 1 -27 
12 1 -27 13 1 -27 14 1 -27 
15 1 -27 16 1 -27 17 1 -27 
18 1 -27 19 1 -27 20 1 -27 
0 2 -27 1 2 -27 2 2 -27 
3 2 -27 4 2 -27 5 2 -27 
6 2 -27 7 2 -27 8 2 -27 
9 2 -27 10 2 -27 11 2 -27 
12 2 -27 13 2 -27 14 2 -27 
15 2 -27 16 2 -27 17 2 -27 
18 2 -27 19 2 -27 20 2 -27 
0 3 -27 1 3 -27 2 3 -27 
3 3 -27 4 3 -27 5 3 -27 
6 3 -27 7 3 -27 8 3 -27 
9 3 -27 10 3 -27 11 3 -27 
12 3 -27 13 3 -27 14 3 -27 
15 3 -27 16 3 -27 17 3 -27 
18 3 -27 19 3 -27 20 3 -27 
[...]
POINT_DATA 9261
FIELD FieldData 8
U 3 9261 double
0 0 0 0 0 0 0 0 0 
0 0 0 0 0 0 0 0 0 
0 0 0 0 0 0 0 0 0 
0 0 0 0 0 0 0 0 0 
0 0 0 0 0 0 0 0 0 
0 0 0 0 0 0 0 0 0 
0 0 0 0 0 0 0 0 0 
0 0 0 0 0 0 0 0 0 
0 0 0 0 0 0 0 0 0 
0 0 0 0 0 0 0 0 0 
0 0 0 0 0 0 0 0 0 
0 0 0 0 0 0 0 0 0 
0 0 0 0 0 0 0 0 0 
0 0 0 0 0 0 0 0 0 
0 0 0 0 0 0 0 0 0 
0 0 0 0 0 0 0 0 0 
0 0 0 0 0 0 0 0 0 
0 0 0 0 0 0 0 0 0 
0 0 0 0 0 0 0 0 0 
0 0 0 0 0 0 0 0 0 
0 0 0 0 0 0 0 0 0 
0 0 0 0 0 0 0 0 0 
0 0 0 0 0 0 0 0 0 
0 0 0 0 0 0 0 0 0 
0 0 0 0 0 0 0 0 0 
0 0 0 0 0 0 0 0 0 
0 0 0 0 0 0 0 0 0 
0 0 0 0 0 0 0 0 0 
0 0 0 0 0 0 0 0 0 
0 0 0 0 0 0 0 0 0 
0 0 0 0 0 0 0 0 0 
0 0 0 0 0 0 0 0 0 
0 0 0 0 0 0 0 0 0 
0 0 0 0 0 0 0 0 0 
0 0 0 0 0 0 0 0 0 
0 0 0 0 0 0 0 0 0 
0 0 0 0 0 0 0 0 0 
0 0 0 0 0 0 0 0 0 
0 0 0 0 0 0 0 0 0 
0 0 0 0 0 0 0 0 0 
0 0 0 0 0 0 0 0 0 
0 0 0 0 0 0 0 0 0 
0 0 0 0 0 0 0 0 0 
0 0 0 0 0 0 0 0 0 
0 0 0 0 0 0 0 0 0 
0 0 0 0 0 0 0 0 0 
0 0 0 0 0 0 0 0 0 
0 0 0 0 0 0 0 0 0 
0 0 0 0 0 0 0 0 0 
0 0 0 0 0 0 0 0 0 
0 0 0 0 0 0 0 0 0 
0 0 0 0 0 0 0 0 0 
0 0 0 0 0 0 0 0 0 
0 0 0 0 0 0 0 0 0 
0 0 0 0 0 0 0 0 0 
0 0 0 0 0 0 0 0 0 
0 0 0 0 0 0 0 0 0 
0 0 0 0 0 0 0 0 0 
0 0 0 0 0 0 0 0 0 
0 0 0 0 0 0 0 0 0 
0 0 0 0 0 0 0 0 0 
0 0 0 0 0 0 0 0 0 
0 0 0 0 0 0 0 0 0 
0 0 0 0 0 0 0 0 0 
0 0 0 0 0 0 0 0 0 
0 0 0 0 0 0 0 0 0 
0 0 0 0 0 0 0 0 0 
0 0 0 0 0 0 0 0 0 
0 0 0 0 0 0 0 0 0 
0 0 0 0 0 0 0 0 0 
0 0 0 0 0 0 0 0 0 
0 0 0 0 0 0 0 0 0 
0 0 0 0 0 0 0 0 0 
0 0 0 0 0 0 0 0 0 
0 0 0 0 0 0 0 0 0 
0 0 0 0 0 0 0 0 0 
0 0 0 0 0 0 0 0 0 
0 0 0 0 0 0 0 0 0 
0 0 0 0 0 0 0 0 0 
0 0 0 0 0 0 0 0 0 
0 0 0 0 0 0 0 0 0 
0 0 0 0 0 0 0 0 0 
0 0 0 0 0 0 0 0 0 
0 0 0 0 0 0 0 0 0 
0 0 0 0 0 0 0 0 0 
0 0 0 0 0 0 0 0 0 
0 0 0 0 0 0 0 0 0 
0 0 0 0 0 0 0 0 0 
0 0 0 0 0 0 0 0 0 
0 0 0 0 0 0 0 0 0 
0 0 0 0 0 0 0 0 0 
0 0 0 0 0 0 0 0 0 
0 0 0 0 0 0 0 0 0 
0 0 0 0 0 0 0 0 0 
0 0 0 0 0 0 0 0 0 
0 0 0 0 0 0 0 0 0 
0 0 0 0 0 0 0 0 0 
0 0 0 0 0 0 0 0 0 
0 0 0 0 0 0 0 0 0 
0 0 0 0 0 0 0 0 0 
0 0 0 0 0 0 0 0 0 
0 0 0 0 0 0 0 0 0 
0 0 0 0 0 0 0 0 0 
0 0 0 0 0 0 0 0 0 
0 0 0 0 0 0 0 0 0 
0 0 0 0 0 0 0 0 0 
0 0 0 0 0 0 0 0 0 
0 0 0 0 0 0 0 0 0 
0 0 0 0 0 0 0 0 0 
0 0 0 0 0 0 0 0 0 
0 0 0 0 0 0 0 0 0 
0 0 0 0 0 0 0 0 0 
0 0 0 0 0 0 0 0 0 
0 0 0 0 0 0 0 0 0 
0 0 0 0 0 0 0 0 0 
0 0 0 0 0 0 0 0 0 
0 0 0 0 0 0 0 0 0 
0 0 0 0 0 0 0 0 0 
0 0 0 0 0 0 0 0 0 
0 0 0 0 0 0 0 0 0 
0 0 0 0 0 0 0 0 0 
0 0 0 0 0 0 0 0 0 
0 0 0 0 0 0 0 0 0 
0 0 0 0 0 0 0 0 0 
0 0 0 0 0 0 0 0 0 
0 0 0 0 0 0 0 0 0 
0 0 0 0 0 0 0 0 0 
0 0 0 0 0 0 0 0 0 
0 0 0 0 0 0 0 0 0 
0 0 0 0 0 0 0 0 0 
0 0 0 0 0 0 0 0 0 
0 0 0 0 0 0 0 0 0 
0 0 0 0 0 0 0 0 0 
0 0 0 0 0 0 0 0 0 
0 0 0 0 0 0 0 0 0 
0 0 0 0 0 0 0 0 0 
0 0 0 0 0 0 0 0 0 
0 0 0 0 0 0 0 0 0 
0 0 0 0 0 0 0 0 0 
0 0 0 0 0 0 0 0 0 
0 0 0 0 0 0 0 0 0 
0 0 0 0 0 0 0 0 0 
0 0 0 0 0 0 0 0 0 
0 0 0 0 0 0 0 0 0 
0 0 0 0 0 0 0 0 0 
0 0 0 0 0 0 0 0 0 
0 0 0 0 0 0 0 0 0 
0 0 5.7679e-05 -1.5517e-05 0 5.69734e-05 -3.06586e-05 0 5.48732e-05 
-4.50573e-05 0 5.14272e-05 -5.83612e-05 0 4.67164e-05 -7.02422e-05 0 4.08525e-05 
-8.04041e-05 0 3.39761e-05 -8.85908e-05 0 2.62544e-05 -9.45939e-05 0 1.7877e-05 
-9.82589e-05 0 9.05202e-06 -9.94911e-05 0 -8.93152e-11 -9.82586e-05 0 -9.05217e-06 
-9.45932e-05 0 -1.78771e-05 -8.859e-05 0 -2.62543e-05 -8.04031e-05 0 -3.39759e-05 
-7.02411e-05 0 -4.08521e-05 -5.83602e-05 0 -4.67158e-05 -4.50564e-05 0 -5.14265e-05 
-3.0658e-05 0 -5.48723e-05 -1.55167e-05 0 -5.69725e-05 0 0 -5.7678e-05 
0 3.17815e-07 5.77129e-05 -1.55216e-05 3.14166e-07 5.7007e-05 -3.06678e-05 3.03251e-07 5.49057e-05 
-4.5071e-05 2.85178e-07 5.14579e-05 -5.83792e-05 2.60161e-07 4.67445e-05 -7.02642e-05 2.2857e-07 4.08772e-05 
-8.04298e-05 1.90972e-07 3.39969e-05 -8.86195e-05 1.48165e-07 2.62706e-05 -9.46248e-05 1.01185e-07 1.78881e-05 
-9.82912e-05 5.12834e-08 9.05765e-06 -9.95239e-05 -1.22344e-10 -1.01788e-10 -9.82909e-05 -5.15265e-08 -9.05782e-06 
-9.46242e-05 -1.01424e-07 -1.78882e-05 -8.86186e-05 -1.48397e-07 -2.62705e-05 -8.04287e-05 -1.91195e-07 -3.39967e-05 
-7.02632e-05 -2.28783e-07 -4.08768e-05 -5.83782e-05 -2.60365e-07 -4.67439e-05 -4.50702e-05 -2.85373e-07 -5.14571e-05 
-3.06672e-05 -3.0344e-07 -5.49048e-05 -1.55213e-05 -3.1435e-07 -5.7006e-05 0 -3.17998e-07 -5.77119e-05 
0 6.04578e-07 5.78113e-05 -1.55351e-05 5.97635e-07 5.71043e-05 -3.06947e-05 5.76868e-07 5.49998e-05 
-4.5111e-05 5.4248e-07 5.15467e-05 -5.84317e-05 4.94885e-07 4.68259e-05 -7.03284e-05 4.34784e-07 4.09491e-05 
-8.05043e-05 3.6326e-07 3.40572e-05 -8.87027e-05 2.8183e-07 2.63175e-05 -9.47146e-05 1.92464e-07 1.79203e-05 
-9.83851e-05 9.75456e-08 9.07397e-06 -9.96192e-05 -2.32858e-10 -1.38019e-10 -9.83848e-05 -9.80084e-08 -9.07422e-06 
-9.47139e-05 -1.92919e-07 -1.79204e-05 -8.87018e-05 -2.82271e-07 -2.63175e-05 -8.05032e-05 -3.63684e-07 -3.4057e-05 
-7.03273e-05 -4.3519e-07 -4.09487e-05 -5.84307e-05 -4.95273e-07 -4.68253e-05 -4.51101e-05 -5.42852e-07 -5.1546e-05 
-3.06941e-05 -5.77227e-07 -5.4999e-05 -1.55348e-05 -5.97986e-07 -5.71034e-05 0 -6.04926e-07 -5.78103e-05 
0 8.32254e-07 5.79646e-05 -1.55562e-05 8.22694e-07 5.7256e-05 -3.07366e-05 7.94096e-07 5.51466e-05 
-4.51732e-05 7.46746e-07 5.16851e-05 -5.85135e-05 6.81213e-07 4.69527e-05 -7.04283e-05 5.98468e-07 4.10609e-05 
-8.06205e-05 5.00004e-07 3.4151e-05 -8.88324e-05 3.87911e-07 2.63906e-05 -9.48545e-05 2.64903e-07 1.79704e-05 
-9.85315e-05 1.34258e-07 9.0994e-06 -9.97677e-05 -3.20811e-10 -1.94544e-10 -9.85311e-05 -1.34895e-07 -9.09976e-06 
-9.48539e-05 -2.65529e-07 -1.79706e-05 -8.88316e-05 -3.88519e-07 -2.63907e-05 -8.06194e-05 -5.00589e-07 -3.4151e-05 
-7.04272e-05 -5.99028e-07 -4.10607e-05 -5.85125e-05 -6.81747e-07 -4.69522e-05 -4.51724e-05 -7.47258e-07 -5.16845e-05 
-3.0736e-05 -7.9459e-07 -5.51458e-05 -1.55558e-05 -8.23176e-07 -5.72552e-05 0 -8.32733e-07 -5.79637e-05 
0 9.78556e-07 5.81579e-05 -1.55827e-05 9.6731e-07 5.74473e-05 -3.07895e-05 9.33672e-07 5.53315e-05 
-4.52519e-05 8.77979e-07 5.18596e-05 -5.86168e-05 8.00905e-07 4.71125e-05 -7.05546e-05 7.03599e-07 4.1202e-05 
-8.07671e-05 5.87818e-07 3.42693e-05 -8.89962e-05 4.56025e-07 2.64827e-05 -9.50312e-05 3.1141e-07 1.80334e-05 
-9.87162e-05 1.57825e-07 9.13144e-06 -9.99552e-05 -3.77595e-10 -2.65935e-10 -9.87159e-05 -1.58576e-07 -9.13194e-06 
-9.50306e-05 -3.12147e-07 -1.80339e-05 -8.89953e-05 -4.5674e-07 -2.6483e-05 -8.0766e-05 -5.88506e-07 -3.42694e-05 
-7.05534e-05 -7.04258e-07 -4.12018e-05 -5.86157e-05 -8.01534e-07 -4.71121e-05 -4.52509e-05 -8.78581e-07 -5.18591e-05 
-3.07888e-05 -9.34253e-07 -5.53309e-05 -1.55824e-05 -9.67878e-07 -5.74465e-05 0 -9.79119e-07 -5.81571e-05 
0 1.02913e-06 5.83723e-05 -1.56123e-05 1.01729e-06 5.76593e-05 -3.08483e-05 9.81901e-07 5.55367e-05 
-4.53392e-05 9.23308e-07 5.20532e-05 -5.87315e-05 8.42228e-07 4.72897e-05 -7.06948e-05 7.39874e-07 4.13583e-05 
-8.093e-05 6.18101e-07 3.44005e-05 -8.91781e-05 4.79502e-07 2.65849e-05 -9.52274e-05 3.27434e-07 1.81034e-05 
-9.89214e-05 1.65943e-07 9.16695e-06 -0.000100163 -3.9756e-10 -3.45286e-10 -9.8921e-05 -1.66733e-07 -9.1676e-06 
-9.52268e-05 -3.28209e-07 -1.81039e-05 -8.91771e-05 -4.80255e-07 -2.65853e-05 -8.09289e-05 -6.18826e-07 -3.44007e-05 
-7.06936e-05 -7.40568e-07 -4.13583e-05 -5.87304e-05 -8.4289e-07 -4.72895e-05 -4.53383e-05 -9.23942e-07 -5.20527e-05 
-3.08476e-05 -9.82513e-07 -5.55361e-05 -1.56119e-05 -1.01789e-06 -5.76587e-05 0 -1.02972e-06 -5.83717e-05 
0 9.78958e-07 5.85869e-05 -1.56419e-05 9.67696e-07 5.78716e-05 -3.09072e-05 9.34014e-07 5.57419e-05 
-4.54267e-05 8.78256e-07 5.22467e-05 -5.88465e-05 8.01106e-07 4.7467e-05 -7.08353e-05 7.03724e-07 4.15147e-05 
-8.10932e-05 5.87879e-07 3.45317e-05 -8.93603e-05 4.56041e-07 2.6687e-05 -9.5424e-05 3.11404e-07 1.81733e-05 
-9.91269e-05 1.57817e-07 9.20245e-06 -0.000100372 -3.7861e-10 -4.24862e-10 -9.91265e-05 -1.58569e-07 -9.20326e-06 
-9.54233e-05 -3.12143e-07 -1.8174e-05 -8.93594e-05 -4.56758e-07 -2.66875e-05 -8.10921e-05 -5.8857e-07 -3.4532e-05 
-7.08341e-05 -7.04385e-07 -4.15148e-05 -5.88454e-05 -8.01737e-07 -4.74669e-05 -4.54258e-05 -8.7886e-07 -5.22465e-05 
-3.09065e-05 -9.34597e-07 -5.57415e-05 -1.56415e-05 -9.68265e-07 -5.7871e-05 0 -9.79522e-07 -5.85863e-05 
0 8.32904e-07 5.87805e-05 -1.56686e-05 8.23318e-07 5.80631e-05 -3.09604e-05 7.9465e-07 5.59272e-05 
-4.55059e-05 7.47194e-07 5.24215e-05 -5.89504e-05 6.81538e-07 4.76269e-05 -7.09623e-05 5.98671e-07 4.16558e-05 
-8.12408e-05 5.00102e-07 3.465e-05 -8.9525e-05 3.87938e-07 2.67791e-05 -9.56017e-05 2.64895e-07 1.82364e-05 
-9.93127e-05 1.34243e-07 9.23447e-06 -0.000100561 -3.22454e-10 -4.9684e-10 -9.93123e-05 -1.34884e-07 -9.23543e-06 
-9.5601e-05 -2.65524e-07 -1.82372e-05 -8.9524e-05 -3.88549e-07 -2.67798e-05 -8.12396e-05 -5.0069e-07 -3.46505e-05 
-7.09611e-05 -5.99234e-07 -4.1656e-05 -5.89493e-05 -6.82075e-07 -4.76269e-05 -4.55049e-05 -7.47709e-07 -5.24213e-05 
-3.09597e-05 -7.95147e-07 -5.59268e-05 -1.56682e-05 -8.23803e-07 -5.80626e-05 0 -8.33385e-07 -5.878e-05 
0 6.05228e-07 5.89343e-05 -1.56899e-05 5.9826e-07 5.82152e-05 -3.10028e-05 5.77422e-07 5.60742e-05 
-4.55688e-05 5.42929e-07 5.25602e-05 -5.90331e-05 4.9521e-07 4.77539e-05 -7.10632e-05 4.34986e-07 4.17677e-05 
-8.13581e-05 3.63359e-07 3.47439e-05 -8.9656e-05 2.81856e-07 2.68522e-05 -9.5743e-05 1.92455e-07 1.82864e-05 
-9.94603e-05 9.75315e-08 9.25987e-06 -0.00010071 -2.345e-10 -5.54092e-10 -9.946e-05 -9.79975e-08 -9.26095e-06 
-9.57422e-05 -1.92913e-07 -1.82874e-05 -8.9655e-05 -2.823e-07 -2.6853e-05 -8.13569e-05 -3.63787e-07 -3.47445e-05 
-7.1062e-05 -4.35396e-07 -4.17681e-05 -5.90319e-05 -4.95601e-07 -4.7754e-05 -4.55678e-05 -5.43303e-07 -5.25601e-05 
-3.1002e-05 -5.77783e-07 -5.60739e-05 -1.56895e-05 -5.98613e-07 -5.82148e-05 0 -6.05578e-07 -5.89338e-05 
0 3.18217e-07 5.9033e-05 -1.57036e-05 3.14552e-07 5.83128e-05 -3.103e-05 3.03594e-07 5.61687e-05 
-4.56093e-05 2.85455e-07 5.26492e-05 -5.90862e-05 2.60362e-07 4.78354e-05 -7.11281e-05 2.28695e-07 4.18396e-05 
-8.14335e-05 1.91034e-07 3.48042e-05 -8.97401e-05 1.48182e-07 2.68991e-05 -9.58337e-05 1.0118e-07 1.83185e-05 
-9.95552e-05 5.12743e-08 9.27618e-06 -0.000100807 -1.2336e-10 -5.90911e-10 -9.95549e-05 -5.15194e-08 -9.27733e-06 
-9.5833e-05 -1.01421e-07 -1.83196e-05 -8.97391e-05 -1.48415e-07 -2.69e-05 -8.14323e-05 -1.91259e-07 -3.48048e-05 
-7.11269e-05 -2.2891e-07 -4.184e-05 -5.9085e-05 -2.60568e-07 -4.78356e-05 -4.56083e-05 -2.85652e-07 -5.26492e-05 
-3.10293e-05 -3.03784e-07 -5.61685e-05 -1.57032e-05 -3.14738e-07 -5.83125e-05 0 -3.18401e-07 -5.90326e-05 
0 -1.19161e-17 5.9067e-05 -1.57083e-05 -1.18802e-17 5.83465e-05 -3.10394e-05 -1.18565e-17 5.62012e-05 
-4.56232e-05 -1.1781e-17 5.26799e-05 -5.91045e-05 -1.16891e-17 4.78635e-05 -7.11505e-05 -1.15626e-17 4.18644e-05 
-8.14595e-05 -1.1434e-17 3.4825e-05 -8.97691e-05 -1.12871e-17 2.69153e-05 -9.5865e-05 -1.11221e-17 1.83296e-05 
-9.9588e-05 -1.0957e-17 9.2818e-06 -0.00010084 -1.07746e-17 -6.03608e-10 -9.95876e-05 -1.05875e-17 -9.28297e-06 
-9.58643e-05 -1.04363e-17 -1.83307e-05 -8.97681e-05 -1.02592e-17 -2.69162e-05 -8.14583e-05 -1.00756e-17 -3.48256e-05 
-7.11493e-05 -9.98534e-18 -4.18648e-05 -5.91033e-05 -9.89178e-18 -4.78637e-05 -4.56222e-05 -9.81006e-18 -5.26799e-05 
-3.10386e-05 -9.74e-18 -5.6201e-05 -1.57079e-05 -9.70209e-18 -5.83462e-05 0 -9.6735e-18 -5.90667e-05 
0 -3.18217e-07 5.9033e-05 -1.57036e-05 -3.14552e-07 5.83128e-05 -3.103e-05 -3.03594e-07 5.61687e-05 
-4.56093e-05 -2.85455e-07 5.26492e-05 -5.90862e-05 -2.60362e-07 4.78354e-05 -7.11281e-05 -2.28695e-07 4.18396e-05 
-8.14335e-05 -1.91034e-07 3.48042e-05 -8.97401e-05 -1.48182e-07 2.68991e-05 -9.58337e-05 -1.0118e-07 1.83185e-05 
-9.95552e-05 -5.12743e-08 9.27618e-06 -0.000100807 1.2336e-10 -5.90911e-10 -9.95549e-05 5.15194e-08 -9.27733e-06 
-9.5833e-05 1.01421e-07 -1.83196e-05 -8.97391e-05 1.48415e-07 -2.69e-05 -8.14323e-05 1.91259e-07 -3.48048e-05 
-7.11269e-05 2.2891e-07 -4.184e-05 -5.9085e-05 2.60568e-07 -4.78356e-05 -4.56083e-05 2.85652e-07 -5.26492e-05 
-3.10293e-05 3.03784e-07 -5.61685e-05 -1.57032e-05 3.14738e-07 -5.83125e-05 0 3.18401e-07 -5.90326e-05 
0 -6.05228e-07 5.89343e-05 -1.56899e-05 -5.9826e-07 5.82152e-05 -3.10028e-05 -5.77422e-07 5.60742e-05 
-4.55688e-05 -5.42929e-07 5.25602e-05 -5.90331e-05 -4.9521e-07 4.77539e-05 -7.10632e-05 -4.34986e-07 4.17677e-05 
-8.13581e-05 -3.63359e-07 3.47439e-05 -8.9656e-05 -2.81856e-07 2.68522e-05 -9.5743e-05 -1.92455e-07 1.82864e-05 
-9.94603e-05 -9.75315e-08 9.25987e-06 -0.00010071 2.345e-10 -5.54092e-10 -9.946e-05 9.79975e-08 -9.26095e-06 
-9.57422e-05 1.92913e-07 -1.82874e-05 -8.9655e-05 2.823e-07 -2.6853e-05 -8.13569e-05 3.63787e-07 -3.47445e-05 
-7.1062e-05 4.35396e-07 -4.17681e-05 -5.90319e-05 4.95601e-07 -4.7754e-05 -4.55678e-05 5.43303e-07 -5.25601e-05 
-3.1002e-05 5.77783e-07 -5.60739e-05 -1.56895e-05 5.98613e-07 -5.82148e-05 0 6.05578e-07 -5.89338e-05 
0 -8.32904e-07 5.87805e-05 -1.56686e-05 -8.23318e-07 5.80631e-05 -3.09604e-05 -7.9465e-07 5.59272e-05 
-4.55059e-05 -7.47194e-07 5.24215e-05 -5.89504e-05 -6.81538e-07 4.76269e-05 -7.09623e-05 -5.98671e-07 4.16558e-05 
-8.12408e-05 -5.00102e-07 3.465e-05 -8.9525e-05 -3.87938e-07 2.67791e-05 -9.56017e-05 -2.64895e-07 1.82364e-05 
-9.93127e-05 -1.34243e-07 9.23447e-06 -0.000100561 3.22454e-10 -4.9684e-10 -9.93123e-05 1.34884e-07 -9.23543e-06 
-9.5601e-05 2.65524e-07 -1.82372e-05 -8.9524e-05 3.88549e-07 -2.67798e-05 -8.12396e-05 5.0069e-07 -3.46505e-05 
-7.09611e-05 5.99234e-07 -4.1656e-05 -5.89493e-05 6.82075e-07 -4.76269e-05 -4.55049e-05 7.47709e-07 -5.24213e-05 
-3.09597e-05 7.95147e-07 -5.59268e-05 -1.56682e-05 8.23803e-07 -5.80626e-05 0 8.33385e-07 -5.878e-05 
0 -9.78958e-07 5.85869e-05 -1.56419e-05 -9.67696e-07 5.78716e-05 -3.09072e-05 -9.34014e-07 5.57419e-05 
-4.54267e-05 -8.78256e-07 5.22467e-05 -5.88465e-05 -8.01106e-07 4.7467e-05 -7.08353e-05 -7.03724e-07 4.15147e-05 
-8.10932e-05 -5.87879e-07 3.45317e-05 -8.93603e-05 -4.56041e-07 2.6687e-05 -9.5424e-05 -3.11404e-07 1.81733e-05 
-9.91269e-05 -1.57817e-07 9.20245e-06 -0.000100372 3.7861e-10 -4.24862e-10 -9.91265e-05 1.58569e-07 -9.20326e-06 
-9.54233e-05 3.12143e-07 -1.8174e-05 -8.93594e-05 4.56758e-07 -2.66875e-05 -8.10921e-05 5.8857e-07 -3.4532e-05 
-7.08341e-05 7.04385e-07 -4.15148e-05 -5.88454e-05 8.01737e-07 -4.74669e-05 -4.54258e-05 8.7886e-07 -5.22465e-05 
-3.09065e-05 9.34597e-07 -5.57415e-05 -1.56415e-05 9.68265e-07 -5.7871e-05 0 9.79522e-07 -5.85863e-05 
0 -1.02913e-06 5.83723e-05 -1.56123e-05 -1.01729e-06 5.76593e-05 -3.08483e-05 -9.81901e-07 5.55367e-05 
-4.53392e-05 -9.23308e-07 5.20532e-05 -5.87315e-05 -8.42228e-07 4.72897e-05 -7.06948e-05 -7.39874e-07 4.13583e-05 
-8.093e-05 -6.18101e-07 3.44005e-05 -8.91781e-05 -4.79502e-07 2.65849e-05 -9.52274e-05 -3.27434e-07 1.81034e-05 
-9.89214e-05 -1.65943e-07 9.16695e-06 -0.000100163 3.9756e-10 -3.45286e-10 -9.8921e-05 1.66733e-07 -9.1676e-06 
-9.52268e-05 3.28209e-07 -1.81039e-05 -8.91771e-05 4.80255e-07 -2.65853e-05 -8.09289e-05 6.18826e-07 -3.44007e-05 
-7.06936e-05 7.40568e-07 -4.13583e-05 -5.87304e-05 8.4289e-07 -4.72895e-05 -4.53383e-05 9.23942e-07 -5.20527e-05 
-3.08476e-05 9.82513e-07 -5.55361e-05 -1.56119e-05 1.01789e-06 -5.76587e-05 0 1.02972e-06 -5.83717e-05 
0 -9.78556e-07 5.81579e-05 -1.55827e-05 -9.6731e-07 5.74473e-05 -3.07895e-05 -9.33672e-07 5.53315e-05 
-4.52519e-05 -8.77979e-07 5.18596e-05 -5.86168e-05 -8.00905e-07 4.71125e-05 -7.05546e-05 -7.03599e-07 4.1202e-05 
-8.07671e-05 -5.87818e-07 3.42693e-05 -8.89962e-05 -4.56025e-07 2.64827e-05 -9.50312e-05 -3.1141e-07 1.80334e-05 
-9.87162e-05 -1.57825e-07 9.13144e-06 -9.99552e-05 3.77595e-10 -2.65935e-10 -9.87159e-05 1.58576e-07 -9.13194e-06 
-9.50306e-05 3.12147e-07 -1.80339e-05 -8.89953e-05 4.5674e-07 -2.6483e-05 -8.0766e-05 5.88506e-07 -3.42694e-05 
-7.05534e-05 7.04258e-07 -4.12018e-05 -5.86157e-05 8.01534e-07 -4.71121e-05 -4.52509e-05 8.78581e-07 -5.18591e-05 
-3.07888e-05 9.34253e-07 -5.53309e-05 -1.55824e-05 9.67878e-07 -5.74465e-05 0 9.79119e-07 -5.81571e-05 
0 -8.32254e-07 5.79646e-05 -1.55562e-05 -8.22694e-07 5.7256e-05 -3.07366e-05 -7.94096e-07 5.51466e-05 
-4.51732e-05 -7.46746e-07 5.16851e-05 -5.85135e-05 -6.81213e-07 4.69527e-05 -7.04283e-05 -5.98468e-07 4.10609e-05 
-8.06205e-05 -5.00004e-07 3.4151e-05 -8.88324e-05 -3.87911e-07 2.63906e-05 -9.48545e-05 -2.64903e-07 1.79704e-05 
-9.85315e-05 -1.34258e-07 9.0994e-06 -9.97677e-05 3.20811e-10 -1.94544e-10 -9.85311e-05 1.34895e-07 -9.09976e-06 
-9.48539e-05 2.65529e-07 -1.79706e-05 -8.88316e-05 3.88519e-07 -2.63907e-05 -8.06194e-05 5.00589e-07 -3.4151e-05 
-7.04272e-05 5.99028e-07 -4.10607e-05 -5.85125e-05 6.81747e-07 -4.69522e-05 -4.51724e-05 7.47258e-07 -5.16845e-05 
-3.0736e-05 7.9459e-07 -5.51458e-05 -1.55558e-05 8.23176e-07 -5.72552e-05 0 8.32733e-07 -5.79637e-05 
0 -6.04578e-07 5.78113e-05 -1.55351e-05 -5.97635e-07 5.71043e-05 -3.06947e-05 -5.76868e-07 5.49998e-05 
-4.5111e-05 -5.4248e-07 5.15467e-05 -5.84317e-05 -4.94885e-07 4.68259e-05 -7.03284e-05 -4.34784e-07 4.09491e-05 
-8.05043e-05 -3.6326e-07 3.40572e-05 -8.87027e-05 -2.8183e-07 2.63175e-05 -9.47146e-05 -1.92464e-07 1.79203e-05 
-9.83851e-05 -9.75456e-08 9.07397e-06 -9.96192e-05 2.32858e-10 -1.38019e-10 -9.83848e-05 9.80084e-08 -9.07422e-06 
-9.47139e-05 1.92919e-07 -1.79204e-05 -8.87018e-05 2.82271e-07 -2.63175e-05 -8.05032e-05 3.63684e-07 -3.4057e-05 
-7.03273e-05 4.3519e-07 -4.09487e-05 -5.84307e-05 4.95273e-07 -4.68253e-05 -4.51101e-05 5.42852e-07 -5.1546e-05 
-3.06941e-05 5.77227e-07 -5.4999e-05 -1.55348e-05 5.97986e-07 -5.71034e-05 0 6.04926e-07 -5.78103e-05 
0 -3.17815e-07 5.77129e-05 -1.55216e-05 -3.14166e-07 5.7007e-05 -3.06678e-05 -3.03251e-07 5.49057e-05 
-4.5071e-05 -2.85178e-07 5.14579e-05 -5.83792e-05 -2.60161e-07 4.67445e-05 -7.02642e-05 -2.2857e-07 4.08772e-05 
-8.04298e-05 -1.90972e-07 3.39969e-05 -8.86195e-05 -1.48165e-07 2.62706e-05 -9.46248e-05 -1.01185e-07 1.78881e-05 
-9.82912e-05 -5.12834e-08 9.05765e-06 -9.95239e-05 1.22344e-10 -1.01788e-10 -9.82909e-05 5.15265e-08 -9.05782e-06 
-9.46242e-05 1.01424e-07 -1.78882e-05 -8.86186e-05 1.48397e-07 -2.62705e-05 -8.04287e-05 1.91195e-07 -3.39967e-05 
-7.02632e-05 2.28783e-07 -4.08768e-05 -5.83782e-05 2.60365e-07 -4.67439e-05 -4.50702e-05 2.85373e-07 -5.14571e-05 
-3.06672e-05 3.0344e-07 -5.49048e-05 -1.55213e-05 3.1435e-07 -5.7006e-05 0 3.17998e-07 -5.77119e-05 
0 0 5.7679e-05 -1.5517e-05 0 5.69734e-05 -3.06586e-05 0 5.48732e-05 
-4.50573e-05 0 5.14272e-05 -5.83612e-05 0 4.67164e-05 -7.02422e-05 0 4.08525e-05 
-8.04041e-05 0 3.39761e-05 -8.85908e-05 0 2.62544e-05 -9.45939e-05 0 1.7877e-05 
-9.82589e-05 0 9.05202e-06 -9.94911e-05 0 -8.93152e-11 -9.82586e-05 0 -9.05217e-06 
-9.45932e-05 0 -1.78771e-05 -8.859e-05 0 -2.62543e-05 -8.04031e-05 0 -3.39759e-05 
-7.02411e-05 0 -4.08521e-05 -5.83602e-05 0 -4.67158e-05 -4.50564e-05 0 -5.14265e-05 
-3.0658e-05 0 -5.48723e-05 -1.55167e-05 0 -5.69725e-05 0 0 -5.7678e-05 
0 0 0.00013091 -2.7852e-05 0 0.000129311 -5.50319e-05 0 0.000124553 
-8.08813e-05 0 0.000116743 -0.000104769 0 0.000106063 -0.000126106 0 9.27627e-05 
-0.00014436 0 7.71599e-05 -0.000159069 0 5.96316e-05 -0.000169856 0 4.06083e-05 
-0.000176442 0 2.05634e-05 -0.000178657 0 -2.21379e-10 -0.000176442 0 -2.05637e-05 
-0.000169855 0 -4.06085e-05 -0.000159067 0 -5.96314e-05 -0.000144358 0 -7.71593e-05 
-0.000126104 0 -9.27616e-05 -0.000104767 0 -0.000106061 -8.08798e-05 0 -0.000116741 
-5.50308e-05 0 -0.00012455 -2.78514e-05 0 -0.000129309 0 0 -0.000130907 
0 6.06834e-07 0.000131002 -2.7861e-05 6.00011e-07 0.000129402 -5.50499e-05 5.79568e-07 0.000124641 
-8.09082e-05 5.45616e-07 0.000116826 -0.000104805 4.98432e-07 0.000106139 -0.00012615 4.38569e-07 9.28303e-05 
-0.000144411 3.66981e-07 7.72167e-05 -0.000159125 2.85109e-07 5.9676e-05 -0.000169917 1.94918e-07 4.06388e-05 
-0.000176507 9.88626e-08 2.05789e-05 -0.000178723 -2.27071e-10 -2.54078e-10 -0.000176506 -9.93136e-08 -2.05793e-05 
-0.000169916 -1.9536e-07 -4.0639e-05 -0.000159124 -2.85537e-07 -5.96759e-05 -0.000144409 -3.67391e-07 -7.72162e-05 
-0.000126148 -4.3896e-07 -9.28293e-05 -0.000104803 -4.98802e-07 -0.000106137 -8.09066e-05 -5.4597e-07 -0.000116824 