# vtk DataFile Version 5.1
vtk output
ASCII
DATASET UNSTRUCTURED_GRID
POINTS 9261 float
0 0 -30 1 0 -30 2 0 -30 
3 0 -30 4 0 -30 5 0 -30 
6 0 -30 7 0 -30 8 0 -30 
9 0 -30 10 0 -30 11 0 -30 
12 0 -30 13 0 -30 14 0 -30 
15 0 -30 16 0 -30 17 0 -30 
18 0 -30 19 0 -30 20 0 -30 
0 1 -30 1 1 -30 2 1 -30 
3 1 -30 4 1 -30 5 1 -30 
6 1 -30 7 1 -30 8 1 -30 
9 1 -30 10 1 -30 11 1 -30 
12 1 -30 13 1 -30 14 1 -30 
15 1 -30 16 1 -30 17 1 -30 
18 1 -30 19 1 -30 20 1 -30 
0 2 -30 1 2 -30 2 2 -30 
3 2 -30 4 2 -30 5 2 -30 
6 2 -30 7 2 -30 8 2 -30 
9 2 -30 10 2 -30 11 2 -30 
12 2 -30 13 2 -30 14 2 -30 
15 2 -30 16 2 -30 17 2 -30 
18 2 -30 19 2 -30 20 2 -30 
0 3 -30 1 3 -30 2 3 -30 
3 3 -30 4 3 -30 5 3 -30 
6 3 -30 7 3 -30 8 3 -30 
9 3 -30 10 3 -30 11 3 -30 
12 3 -30 13 3 -30 14 3 -30 
15 3 -30 16 3 -30 17 3 -30 
18 3 -30 19 3 -30 20 3 -30 
0 4 -30 1 4 -30 2 4 -30 
3 4 -30 4 4 -30 5 4 -30 
6 4 -30 7 4 -30 8 4 -30 
9 4 -30 10 4 -30 11 4 -30 
12 4 -30 13 4 -30 14 4 -30 
15 4 -30 16 4 -30 17 4 -30 
18 4 -30 19 4 -30 20 4 -30 
0 5 -30 1 5 -30 2 5 -30 
3 5 -30 4 5 -30 5 5 -30 
6 5 -30 7 5 -30 8 5 -30 
9 5 -30 10 5 -30 11 5 -30 
12 5 -30 13 5 -30 14 5 -30 
15 5 -30 16 5 -30 17 5 -30 
18 5 -30 19 5 -30 20 5 -30 
0 6 -30 1 6 -30 2 6 -30 
3 6 -30 4 6 -30 5 6 -30 
6 6 -30 7 6 -30 8 6 -30 
9 6 -30 10 6 -30 11 6 -30 
12 6 -30 13 6 -30 14 6 -30 
15 6 -30 16 6 -30 17 6 -30 
18 6 -30 19 6 -30 20 6 -30 
0 7 -30 1 7 -30 2 7 -30 
3 7 -30 4 7 -30 5 7 -30 
6 7 -30 7 7 -30 8 7 -30 
9 7 -30 10 7 -30 11 7 -30 
12 7 -30 13 7 -30 14 7 -30 
15 7 -30 16 7 -30 17 7 -30 
18 7 -30 19 7 -30 20 7 -30 
0 8 -30 1 8 -30 2 8 -30 
3 8 -30 4 8 -30 5 8 -30 
6 8 -30 7 8 -30 8 8 -30 
9 8 -30 10 8 -30 11 8 -30 
12 8 -30 13 8 -30 14 8 -30 
15 8 -30 16 8 -30 17 8 -30 
18 8 -30 19 8 -30 20 8 -30 
0 9 -30 1 9 -30 2 9 -30 
3 9 -30 4 9 -30 5 9 -30 
6 9 -30 7 9 -30 8 9 -30 
9 9 -30 10 9 -30 11 9 -30 
12 9 -30 13 9 -30 14 9 -30 
15 9 -30 16 9 -30 17 9 -30 
18 9 -30 19 9 -30 20 9 -30 
0 10 -30 1 10 -30 2 10 -30 
3 10 -30 4 10 -30 5 10 -30 
6 10 -30 7 10 -30 8 10 -30 
9 10 -30 10 10 -30 11 10 -30 
12 10 -30 13 10 -30 14 10 -30 
15 10 -30 16 10 -30 17 10 -30 
18 10 -30 19 10 -30 20 10 -30 
0 11 -30 1 11 -30 2 11 -30 
3 11 -30 4 11 -30 5 11 -30 
6 11 -30 7 11 -30 8 11 -30 
9 11 -30 10 11 -30 11 11 -30 
12 11 -30 13 11 -30 14 11 -30 
15 11 -30 16 11 -30 17 11 -30 
18 11 -30 19 11 -30 20 11 -30 
0 12 -30 1 12 -30 2 12 -30 
3 12 -30 4 12 -30 5 12 -30 
6 12 -30 7 12 -30 8 12 -30 
9 12 -30 10 12 -30 11 12 -30 
12 12 -30 13 12 -30 14 12 -30 
15 12 -30 16 12 -30 17 12 -30 
18 12 -30 19 12 -30 20 12 -30 
0 13 -30 1 13 -30 2 13 -30 
3 13 -30 4 13 -30 5 13 -30 
6 13 -30 7 13 -30 8 13 -30 
9 13 -30 10 13 -30 11 13 -30 
12 13 -30 13 13 -30 14 13 -30 
15 13 -30 16 13 -30 17 13 -30 
18 13 -30 19 13 -30 20 13 -30 
0 14 -30 1 14 -30 2 14 -30 
3 14 -30 4 14 -30 5 14 -30 
6 14 -30 7 14 -30 8 14 -30 
9 14 -30 10 14 -30 11 14 -30 
12 14 -30 13 14 -30 14 14 -30 
15 14 -30 16 14 -30 17 14 -30 
18 14 -30 19 14 -30 20 14 -30 
0 15 -30 1 15 -30 2 15 -30 
3 15 -30 4 15 -30 5 15 -30 
6 15 -30 7 15 -30 8 15 -30 
9 15 -30 10 15 -30 11 15 -30 
12 15 -30 13 15 -30 14 15 -30 
15 15 -30 16 15 -30 17 15 -30 
18 15 -30 19 15 -30 20 15 -30 
0 16 -30 1 16 -30 2 16 -30 
3 16 -30 4 16 -30 5 16 -30 
6 16 -30 7 16 -30 8 16 -30 
9 16 -30 10 16 -30 11 16 -30 
12 16 -30 13 16 -30 14 16 -30 
15 16 -30 16 16 -30 17 16 -30 
18 16 -30 19 16 -30 20 16 -30 
0 17 -30 1 17 -30 2 17 -30 
3 17 -30 4 17 -30 5 17 -30 
6 17 -30 7 17 -30 8 17 -30 
9 17 -30 10 17 -30 11 17 -30 
12 17 -30 13 17 -30 14 17 -30 
15 17 -30 16 17 -30 17 17 -30 
18 17 -30 19 17 -30 20 17 -30 
0 18 -30 1 18 -30 2 18 -30 
3 18 -30 4 18 -30 5 18 -30 
6 18 -30 7 18 -30 8 18 -30 
9 18 -30 10 18 -30 11 18 -30 
12 18 -30 13 18 -30 14 18 -30 
15 18 -30 16 18 -30 17 18 -30 
18 18 -30 19 18 -30 20 18 -30 
0 19 -30 1 19 -30 2 19 -30 
3 19 -30 4 19 -30 5 19 -30 
6 19 -30 7 19 -30 8 19 -30 
9 19 -30 10 19 -30 11 19 -30 
12 19 -30 13 19 -30 14 19 -30 
15 19 -30 16 19 -30 17 19 -30 
18 19 -30 19 19 -30 20 19 -30 
0 20 -30 1 20 -30 2 20 -30 
3 20 -30 4 20 -30 5 20 -30 
6 20 -30 7 20 -30 8 20 -30 
9 20 -30 10 20 -30 11 20 -30 
12 20 -30 13 20 -30 14 20 -30 
15 20 -30 16 20 -30 17 20 -30 
18 20 -30 19 20 -30 20 20 -30 
0 0 -28.5 1 0 -28.5 2 0 -28.5 
3 0 -28.5 4 0 -28.5 5 0 -28.5 
6 0 -28.5 7 0 -28.5 8 0 -28.5 
9 0 -28.5 10 0 -28.5 11 0 -28.5 
12 0 -28.5 13 0 -28.5 14 0 -28.5 
15 0 -28.5 16 0 -28.5 17 0 -28.5 
18 0 -28.5 19 0 -28.5 20 0 -28.5 
0 1 -28.5 1 1 -28.5 2 1 -28.5 
3 1 -28.5 4 1 -28.5 5 1 -28.5 
6 1 -28.5 7 1 -28.5 8 1 -28.5 
9 1 -28.5 10 1 -28.5 11 1 -28.5 
12 1 -28.5 13 1 -28.5 14 1 -28.5 
15 1 -28.5 16 1 -28.5 17 1 -28.5 
18 1 -28.5 19 1 -28.5 20 1 -28.5 
0 2 -28.5 1 2 -28.5 2 2 -28.5 
3 2 -28.5 4 2 -28.5 5 2 -28.5 
6 2 -28.5 7 2 -28.5 8 2 -28.5 
9 2 -28.5 10 2 -28.5 11 2 -28.5 
12 2 -28.5 13 2 -28.5 14 2 -28.5 
15 2 -28.5 16 2 -28.5 17 2 -28.5 
18 2 -28.5 19 2 -28.5 20 2 -28.5 
0 3 -28.5 1 3 -28.5 2 3 -28.5 
3 3 -28.5 4 3 -28.5 5 3 -28.5 
6 3 -28.5 7 3 -28.5 8 3 -28.5 
9 3 -28.5 10 3 -28.5 11 3 -28.5 
12 3 -28.5 13 3 -28.5 14 3 -28.5 
15 3 -28.5 16 3 -28.5 17 3 -28.5 
18 3 -28.5 19 3 -28.5 20 3 -28.5 
0 4 -28.5 1 4 -28.5 2 4 -28.5 
3 4 -28.5 4 4 -28.5 5 4 -28.5 
6 4 -28.5 7 4 -28.5 8 4 -28.5 
9 4 -28.5 10 4 -28.5 11 4 -28.5 
12 4 -28.5 13 4 -28.5 14 4 -28.5 
15 4 -28.5 16 4 -28.5 17 4 -28.5 
18 4 -28.5 19 4 -28.5 20 4 -28.5 
0 5 -28.5 1 5 -28.5 2 5 -28.5 
3 5 -28.5 4 5 -28.5 5 5 -28.5 
6 5 -28.5 7 5 -28.5 8 5 -28.5 
9 5 -28.5 10 5 -28.5 11 5 -28.5 
12 5 -28.5 13 5 -28.5 14 5 -28.5 
15 5 -28.5 16 5 -28.5 17 5 -28.5 
18 5 -28.5 19 5 -28.5 20 5 -28.5 
0 6 -28.5 1 6 -28.5 2 6 -28.5 
3 6 -28.5 4 6 -28.5 5 6 -28.5 
6 6 -28.5 7 6 -28.5 8 6 -28.5 
9 6 -28.5 10 6 -28.5 11 6 -28.5 
12 6 -28.5 13 6 -28.5 14 6 -28.5 
15 6 -28.5 16 6 -28.5 17 6 -28.5 
18 6 -28.5 19 6 -28.5 20 6 -28.5 
0 7 -28.5 1 7 -28.5 2 7 -28.5 
3 7 -28.5 4 7 -28.5 5 7 -28.5 
6 7 -28.5 7 7 -28.5 8 7 -28.5 
9 7 -28.5 10 7 -28.5 11 7 -28.5 
12 7 -28.5 13 7 -28.5 14 7 -28.5 
15 7 -28.5 16 7 -28.5 17 7 -28.5 
18 7 -28.5 19 7 -28.5 20 7 -28.5 
0 8 -28.5 1 8 -28.5 2 8 -28.5 
3 8 -28.5 4 8 -28.5 5 8 -28.5 
6 8 -28.5 7 8 -28.5 8 8 -28.5 
9 8 -28.5 10 8 -28.5 11 8 -28.5 
12 8 -28.5 13 8 -28.5 14 8 -28.5 
15 8 -28.5 16 8 -28.5 17 8 -28.5 
18 8 -28.5 19 8 -28.5 20 8 -28.5 
0 9 -28.5 1 9 -28.5 2 9 -28.5 
3 9 -28.5 4 9 -28.5 5 9 -28.5 
6 9 -28.5 7 9 -28.5 8 9 -28.5 
9 9 -28.5 10 9 -28.5 11 9 -28.5 
12 9 -28.5 13 9 -28.5 14 9 -28.5 
15 9 -28.5 16 9 -28.5 17 9 -28.5 
18 9 -28.5 19 9 -28.5 20 9 -28.5 
0 10 -28.5 1 10 -28.5 2 10 -28.5 
3 10 -28.5 4 10 -28.5 5 10 -28.5 
6 10 -28.5 7 10 -28.5 8 10 -28.5 
9 10 -28.5 10 10 -28.5 11 10 -28.5 
12 10 -28.5 13 10 -28.5 14 10 -28.5 
15 10 -28.5 16 10 -28.5 17 10 -28.5 
18 10 -28.5 19 10 -28.5 20 10 -28.5 
0 11 -28.5 1 11 -28.5 2 11 -28.5 
3 11 -28.5 4 11 -28.5 5 11 -28.5 
6 11 -28.5 7 11 -28.5 8 11 -28.5 
9 11 -28.5 10 11 -28.5 11 11 -28.5 
12 11 -28.5 13 11 -28.5 14 11 -28.5 
15 11 -28.5 16 11 -28.5 17 11 -28.5 
18 11 -28.5 19 11 -28.5 20 11 -28.5 
0 12 -28.5 1 12 -28.5 2 12 -28.5 
3 12 -28.5 4 12 -28.5 5 12 -28.5 
6 12 -28.5 7 12 -28.5 8 12 -28.5 
9 12 -28.5 10 12 -28.5 11 12 -28.5 
12 12 -28.5 13 12 -28.5 14 12 -28.5 
15 12 -28.5 16 12 -28.5 17 12 -28.5 
18 12 -28.5 19 12 -28.5 20 12 -28.5 
0 13 -28.5 1 13 -28.5 2 13 -28.5 
3 13 -28.5 4 13 -28.5 5 13 -28.5 
6 13 -28.5 7 13 -28.5 8 13 -28.5 
9 13 -28.5 10 13 -28.5 11 13 -28.5 
12 13 -28.5 13 13 -28.5 14 13 -28.5 
15 13 -28.5 16 13 -28.5 17 13 -28.5 
18 13 -28.5 19 13 -28.5 20 13 -28.5 
0 14 -28.5 1 14 -28.5 2 14 -28.5 
3 14 -28.5 4 14 -28.5 5 14 -28.5 
6 14 -28.5 7 14 -28.5 8 14 -28.5 
9 14 -28.5 10 14 -28.5 11 14 -28.5 
12 14 -28.5 13 14 -28.5 14 14 -28.5 
15 14 -28.5 16 14 -28.5 17 14 -28.5 
18 14 -28.5 19 14 -28.5 20 14 -28.5 
0 15 -28.5 1 15 -28.5 2 15 -28.5 
3 15 -28.5 4 15 -28.5 5 15 -28.5 
6 15 -28.5 7 15 -28.5 8 15 -28.5 
9 15 -28.5 10 15 -28.5 11 15 -28.5 
12 15 -28.5 13 15 -28.5 14 15 -28.5 
15 15 -28.5 16 15 -28.5 17 15 -28.5 
18 15 -28.5 19 15 -28.5 20 15 -28.5 
0 16 -28.5 1 16 -28.5 2 16 -28.5 
3 16 -28.5 4 16 -28.5 5 16 -28.5 
6 16 -28.5 7 16 -28.5 8 16 -28.5 
9 16 -28.5 10 16 -28.5 11 16 -28.5 
12 16 -28.5 13 16 -28.5 14 16 -28.5 
15 16 -28.5 16 16 -28.5 17 16 -28.5 
18 16 -28.5 19 16 -28.5 20 16 -28.5 
0 17 -28.5 1 17 -28.5 2 17 -28.5 
3 17 -28.5 4 17 -28.5 5 17 -28.5 
6 17 -28.5 7 17 -28.5 8 17 -28.5 
9 17 -28.5 10 17 -28.5 11 17 -28.5 
12 17 -28.5 13 17 -28.5 14 17 -28.5 
15 17 -28.5 16 17 -28.5 17 17 -28.5 
18 17 -28.5 19 17 -28.5 20 17 -28.5 
0 18 -28.5 1 18 -28.5 2 18 -28.5 
3 18 -28.5 4 18 -28.5 5 18 -28.5 
6 18 -28.5 7 18 -28.5 8 18 -28.5 
9 18 -28.5 10 18 -28.5 11 18 -28.5 
12 18 -28.5 13 18 -28.5 14 18 -28.5 
15 18 -28.5 16 18 -28.5 17 18 -28.5 
18 18 -28.5 19 18 -28.5 20 18 -28.5 
0 19 -28.5 1 19 -28.5 2 19 -28.5 
3 19 -28.5 4 19 -28.5 5 19 -28.5 
6 19 -28.5 7 19 -28.5 8 19 -28.5 
9 19 -28.5 10 19 -28.5 11 19 -28.5 
12 19 -28.5 13 19 -28.5 14 19 -28.5 
15 19 -28.5 16 19 -28.5 17 19 -28.5 
18 19 -28.5 19 19 -28.5 20 19 -28.5 
0 20 -28.5 1 20 -28.5 2 20 -28.5 
3 20 -28.5 4 20 -28.5 5 20 -28.5 
6 20 -28.5 7 20 -28.5 8 20 -28.5 
9 20 -28.5 10 20 -28.5 11 20 -28.5 
12 20 -28.5 13 20 -28.5 14 20 -28.5 
15 20 -28.5 16 20 -28.5 17 20 -28.5 
18 20 -28.5 19 20 -28.5 20 20 -28.5 
0 0 -27 1 0 -27 2 0 -27 
3 0 -27 4 0 -27 5 0 -27 
6 0 -27 7 0 -27 8 0 -27 
9 0 -27 10 0 -27 11 0 -27 
12 0 -27 13 0 -27 14 0 -27 
15 0 -27 16 0 -27 17 0 -27 
18 0 -27 19 0 -27 20 0 -27 
0 1 -27 1 1 -27 2 1 -27 
3 1 -27 4 1 -27 5 1 -27 
6 1 -27 7 1 -27 8 1 -27 
9 1 -27 10 1 -27 11 1 -27 
12 1 -27 13 1 -27 14 1 -27 
15 1 -27 16 1 -27 17 1 -27 
18 1 -27 19 1 -27 20 1 -27 
0 2 -27 1 2 -27 2 2 -27 
3 2 -27 4 2 -27 5 2 -27 
6 2 -27 7 2 -27 8 2 -27 
9 2 -27 10 2 -27 11 2 -27 
12 2 -27 13 2 -27 14 2 -27 
15 2 -27 16 2 -27 17 2 -27 
18 2 -27 19 2 -27 20 2 -27 
0 3 -27 1 3 -27 2 3 -27 
3 3 -27 4 3 -27 5 3 -27 
6 3 -27 7 3 -27 8 3 -27 
9 3 -27 10 3 -27 11 3 -27 
12 3 -27 13 3 -27 14 3 -27 
15 3 -27 16 3 -27 17 3 -27 
18 3 -27 19 3 -27 20 3 -27 
[...]
POINT_DATA 9261
FIELD FieldData 8
U 3 9261 double
0 0 0 0 0 0 0 0 0 
0 0 0 0 0 0 0 0 0 
0 0 0 0 0 0 0 0 0 
0 0 0 0 0 0 0 0 0 
0 0 0 0 0 0 0 0 0 
0 0 0 0 0 0 0 0 0 
0 0 0 0 0 0 0 0 0 
0 0 0 0 0 0 0 0 0 
0 0 0 0 0 0 0 0 0 
0 0 0 0 0 0 0 0 0 
0 0 0 0 0 0 0 0 0 
0 0 0 0 0 0 0 0 0 
0 0 0 0 0 0 0 0 0 
0 0 0 0 0 0 0 0 0 
0 0 0 0 0 0 0 0 0 
0 0 0 0 0 0 0 0 0 
0 0 0 0 0 0 0 0 0 
0 0 0 0 0 0 0 0 0 
0 0 0 0 0 0 0 0 0 
0 0 0 0 0 0 0 0 0 
0 0 0 0 0 0 0 0 0 
0 0 0 0 0 0 0 0 0 
0 0 0 0 0 0 0 0 0 
0 0 0 0 0 0 0 0 0 
0 0 0 0 0 0 0 0 0 
0 0 0 0 0 0 0 0 0 
0 0 0 0 0 0 0 0 0 
0 0 0 0 0 0 0 0 0 
0 0 0 0 0 0 0 0 0 
0 0 0 0 0 0 0 0 0 
0 0 0 0 0 0 0 0 0 
0 0 0 0 0 0 0 0 0 
0 0 0 0 0 0 0 0 0 
0 0 0 0 0 0 0 0 0 
0 0 0 0 0 0 0 0 0 
0 0 0 0 0 0 0 0 0 
0 0 0 0 0 0 0 0 0 
0 0 0 0 0 0 0 0 0 
0 0 0 0 0 0 0 0 0 
0 0 0 0 0 0 0 0 0 
0 0 0 0 0 0 0 0 0 
0 0 0 0 0 0 0 0 0 
0 0 0 0 0 0 0 0 0 
0 0 0 0 0 0 0 0 0 
0 0 0 0 0 0 0 0 0 
0 0 0 0 0 0 0 0 0 
0 0 0 0 0 0 0 0 0 
0 0 0 0 0 0 0 0 0 
0 0 0 0 0 0 0 0 0 
0 0 0 0 0 0 0 0 0 
0 0 0 0 0 0 0 0 0 
0 0 0 0 0 0 0 0 0 
0 0 0 0 0 0 0 0 0 
0 0 0 0 0 0 0 0 0 
0 0 0 0 0 0 0 0 0 
0 0 0 0 0 0 0 0 0 
0 0 0 0 0 0 0 0 0 
0 0 0 0 0 0 0 0 0 
0 0 0 0 0 0 0 0 0 
0 0 0 0 0 0 0 0 0 
0 0 0 0 0 0 0 0 0 
0 0 0 0 0 0 0 0 0 
0 0 0 0 0 0 0 0 0 
0 0 0 0 0 0 0 0 0 
0 0 0 0 0 0 0 0 0 
0 0 0 0 0 0 0 0 0 
0 0 0 0 0 0 0 0 0 
0 0 0 0 0 0 0 0 0 
0 0 0 0 0 0 0 0 0 
0 0 0 0 0 0 0 0 0 
0 0 0 0 0 0 0 0 0 
0 0 0 0 0 0 0 0 0 
0 0 0 0 0 0 0 0 0 
0 0 0 0 0 0 0 0 0 
0 0 0 0 0 0 0 0 0 
0 0 0 0 0 0 0 0 0 
0 0 0 0 0 0 0 0 0 
0 0 0 0 0 0 0 0 0 
0 0 0 0 0 0 0 0 0 
0 0 0 0 0 0 0 0 0 
0 0 0 0 0 0 0 0 0 
0 0 0 0 0 0 0 0 0 
0 0 0 0 0 0 0 0 0 
0 0 0 0 0 0 0 0 0 
0 0 0 0 0 0 0 0 0 
0 0 0 0 0 0 0 0 0 
0 0 0 0 0 0 0 0 0 
0 0 0 0 0 0 0 0 0 
0 0 0 0 0 0 0 0 0 
0 0 0 0 0 0 0 0 0 
0 0 0 0 0 0 0 0 0 
0 0 0 0 0 0 0 0 0 
0 0 0 0 0 0 0 0 0 
0 0 0 0 0 0 0 0 0 
0 0 0 0 0 0 0 0 0 
0 0 0 0 0 0 0 0 0 
0 0 0 0 0 0 0 0 0 
0 0 0 0 0 0 0 0 0 
0 0 0 0 0 0 0 0 0 
0 0 0 0 0 0 0 0 0 
0 0 0 0 0 0 0 0 0 
0 0 0 0 0 0 0 0 0 
0 0 0 0 0 0 0 0 0 
0 0 0 0 0 0 0 0 0 
0 0 0 0 0 0 0 0 0 
0 0 0 0 0 0 0 0 0 
0 0 0 0 0 0 0 0 0 
0 0 0 0 0 0 0 0 0 
0 0 0 0 0 0 0 0 0 
0 0 0 0 0 0 0 0 0 
0 0 0 0 0 0 0 0 0 
0 0 0 0 0 0 0 0 0 
0 0 0 0 0 0 0 0 0 
0 0 0 0 0 0 0 0 0 
0 0 0 0 0 0 0 0 0 
0 0 0 0 0 0 0 0 0 
0 0 0 0 0 0 0 0 0 
0 0 0 0 0 0 0 0 0 
0 0 0 0 0 0 0 0 0 
0 0 0 0 0 0 0 0 0 
0 0 0 0 0 0 0 0 0 
0 0 0 0 0 0 0 0 0 
0 0 0 0 0 0 0 0 0 
0 0 0 0 0 0 0 0 0 
0 0 0 0 0 0 0 0 0 
0 0 0 0 0 0 0 0 0 
0 0 0 0 0 0 0 0 0 
0 0 0 0 0 0 0 0 0 
0 0 0 0 0 0 0 0 0 
0 0 0 0 0 0 0 0 0 
0 0 0 0 0 0 0 0 0 
0 0 0 0 0 0 0 0 0 
0 0 0 0 0 0 0 0 0 
0 0 0 0 0 0 0 0 0 
0 0 0 0 0 0 0 0 0 
0 0 0 0 0 0 0 0 0 
0 0 0 0 0 0 0 0 0 
0 0 0 0 0 0 0 0 0 
0 0 0 0 0 0 0 0 0 
0 0 0 0 0 0 0 0 0 
0 0 0 0 0 0 0 0 0 
0 0 0 0 0 0 0 0 0 
0 0 0 0 0 0 0 0 0 
0 0 0 0 0 0 0 0 0 
0 0 0 0 0 0 0 0 0 
0 0 0 0 0 0 0 0 0 
0 0 0 0 0 0 0 0 0 
0 0 2.30716e-05 -6.20679e-06 0 2.27894e-05 -1.22634e-05 0 2.19493e-05 
-1.80229e-05 0 2.05709e-05 -2.33445e-05 0 1.86866e-05 -2.80969e-05 0 1.6341e-05 
-3.21616e-05 0 1.35904e-05 -3.54363e-05 0 1.05018e-05 -3.78375e-05 0 7.15082e-06 
-3.93036e-05 0 3.62081e-06 -3.97964e-05 0 -3.57261e-11 -3.93034e-05 0 -3.62087e-06 
-3.78373e-05 0 -7.15084e-06 -3.5436e-05 0 -1.05017e-05 -3.21612e-05 0 -1.35904e-05 
-2.80964e-05 0 -1.63408e-05 -2.33441e-05 0 -1.86863e-05 -1.80226e-05 0 -2.05706e-05 
-1.22632e-05 0 -2.19489e-05 -6.20666e-06 0 -2.2789e-05 0 0 -2.30712e-05 
0 1.27126e-07 2.30852e-05 -6.20865e-06 1.25666e-07 2.28028e-05 -1.22671e-05 1.21301e-07 2.19623e-05 
-1.80284e-05 1.14071e-07 2.05831e-05 -2.33517e-05 1.04064e-07 1.86978e-05 -2.81057e-05 9.14279e-08 1.63509e-05 
-3.21719e-05 7.63888e-08 1.35988e-05 -3.54478e-05 5.92661e-08 1.05082e-05 -3.78499e-05 4.04739e-08 7.15525e-06 
-3.93165e-05 2.05133e-08 3.62306e-06 -3.98096e-05 -4.89378e-11 -4.07153e-11 -3.93164e-05 -2.06106e-08 -3.62313e-06 
-3.78497e-05 -4.05694e-08 -7.15528e-06 -3.54475e-05 -5.93588e-08 -1.05082e-05 -3.21715e-05 -7.64781e-08 -1.35987e-05 
-2.81053e-05 -9.15134e-08 -1.63507e-05 -2.33513e-05 -1.04146e-07 -1.86975e-05 -1.80281e-05 -1.14149e-07 -2.05828e-05 
-1.22669e-05 -1.21376e-07 -2.19619e-05 -6.20852e-06 -1.2574e-07 -2.28024e-05 0 -1.27199e-07 -2.30848e-05 
0 2.41831e-07 2.31245e-05 -6.21405e-06 2.39054e-07 2.28417e-05 -1.22779e-05 2.30747e-07 2.19999e-05 
-1.80444e-05 2.16992e-07 2.06187e-05 -2.33727e-05 1.97954e-07 1.87303e-05 -2.81313e-05 1.73914e-07 1.63796e-05 
-3.22017e-05 1.45304e-07 1.36229e-05 -3.54811e-05 1.12732e-07 1.0527e-05 -3.78858e-05 7.69857e-08 7.16811e-06 
-3.9354e-05 3.90182e-08 3.62959e-06 -3.98477e-05 -9.3143e-11 -5.52075e-11 -3.93539e-05 -3.92034e-08 -3.62969e-06 
-3.78856e-05 -7.71675e-08 -7.16817e-06 -3.54807e-05 -1.12908e-07 -1.0527e-05 -3.22013e-05 -1.45474e-07 -1.36228e-05 
-2.81309e-05 -1.74076e-07 -1.63795e-05 -2.33723e-05 -1.98109e-07 -1.87301e-05 -1.8044e-05 -2.17141e-07 -2.06184e-05 
-1.22776e-05 -2.30891e-07 -2.19996e-05 -6.21392e-06 -2.39194e-07 -2.28414e-05 0 -2.4197e-07 -2.31241e-05 
0 3.32902e-07 2.31859e-05 -6.22247e-06 3.29077e-07 2.29024e-05 -1.22946e-05 3.17638e-07 2.20586e-05 
-1.80693e-05 2.98698e-07 2.06741e-05 -2.34054e-05 2.72485e-07 1.87811e-05 -2.81713e-05 2.39387e-07 1.64244e-05 
-3.22482e-05 2.00001e-07 1.36604e-05 -3.5533e-05 1.55164e-07 1.05562e-05 -3.79418e-05 1.05961e-07 7.18814e-06 
-3.94126e-05 5.3703e-08 3.63976e-06 -3.99071e-05 -1.28324e-10 -7.78176e-11 -3.94125e-05 -5.39581e-08 -3.6399e-06 
-3.79416e-05 -1.06212e-07 -7.18825e-06 -3.55326e-05 -1.55408e-07 -1.05563e-05 -3.22478e-05 -2.00235e-07 -1.36604e-05 
-2.81709e-05 -2.39611e-07 -1.64243e-05 -2.3405e-05 -2.72699e-07 -1.87809e-05 -1.80689e-05 -2.98903e-07 -2.06738e-05 
-1.22944e-05 -3.17836e-07 -2.20583e-05 -6.22233e-06 -3.29271e-07 -2.29021e-05 0 -3.33093e-07 -2.31855e-05 
0 3.91422e-07 2.32632e-05 -6.2331e-06 3.86924e-07 2.29789e-05 -1.23158e-05 3.73469e-07 2.21326e-05 
-1.81007e-05 3.51191e-07 2.07439e-05 -2.34467e-05 3.20362e-07 1.8845e-05 -2.82218e-05 2.8144e-07 1.64808e-05 
-3.23068e-05 2.35127e-07 1.37077e-05 -3.55985e-05 1.8241e-07 1.05931e-05 -3.80125e-05 1.24564e-07 7.21338e-06 
-3.94865e-05 6.31302e-08 3.65258e-06 -3.99821e-05 -1.51038e-10 -1.06374e-10 -3.94863e-05 -6.34304e-08 -3.65278e-06 
-3.80122e-05 -1.24859e-07 -7.21354e-06 -3.55981e-05 -1.82696e-07 -1.05932e-05 -3.23064e-05 -2.35403e-07 -1.37078e-05 
-2.82214e-05 -2.81703e-07 -1.64807e-05 -2.34463e-05 -3.20614e-07 -1.88449e-05 -1.81004e-05 -3.51433e-07 -2.07436e-05 
-1.23155e-05 -3.73701e-07 -2.21323e-05 -6.23296e-06 -3.87151e-07 -2.29786e-05 0 -3.91648e-07 -2.32629e-05 
0 4.11651e-07 2.33489e-05 -6.24491e-06 4.06917e-07 2.30637e-05 -1.23393e-05 3.9276e-07 2.22147e-05 
-1.81357e-05 3.69323e-07 2.08213e-05 -2.34926e-05 3.36891e-07 1.89159e-05 -2.82779e-05 2.9595e-07 1.65433e-05 
-3.2372e-05 2.4724e-07 1.37602e-05 -3.56712e-05 1.91801e-07 1.06339e-05 -3.8091e-05 1.30974e-07 7.24135e-06 
-3.95685e-05 6.63771e-08 3.66678e-06 -4.00654e-05 -1.59024e-10 -1.38114e-10 -3.95684e-05 -6.66932e-08 -3.66704e-06 
-3.80907e-05 -1.31284e-07 -7.24157e-06 -3.56709e-05 -1.92102e-07 -1.06341e-05 -3.23716e-05 -2.4753e-07 -1.37603e-05 
-2.82774e-05 -2.96227e-07 -1.65433e-05 -2.34922e-05 -3.37156e-07 -1.89158e-05 -1.81353e-05 -3.69577e-07 -2.08211e-05 
-1.2339e-05 -3.93005e-07 -2.22144e-05 -6.24476e-06 -4.07157e-07 -2.30635e-05 0 -4.11888e-07 -2.33487e-05 
0 3.91583e-07 2.34347e-05 -6.25674e-06 3.87078e-07 2.31486e-05 -1.23629e-05 3.73606e-07 2.22968e-05 
-1.81707e-05 3.51302e-07 2.08987e-05 -2.35386e-05 3.20442e-07 1.89868e-05 -2.83341e-05 2.8149e-07 1.66059e-05 
-3.24373e-05 2.35152e-07 1.38127e-05 -3.57441e-05 1.82416e-07 1.06748e-05 -3.81696e-05 1.24562e-07 7.26932e-06 
-3.96508e-05 6.31267e-08 3.68098e-06 -4.01488e-05 -1.51444e-10 -1.69945e-10 -3.96506e-05 -6.34277e-08 -3.68131e-06 
-3.81693e-05 -1.24857e-07 -7.2696e-06 -3.57437e-05 -1.82703e-07 -1.0675e-05 -3.24368e-05 -2.35428e-07 -1.38128e-05 
-2.83336e-05 -2.81754e-07 -1.66059e-05 -2.35381e-05 -3.20695e-07 -1.89867e-05 -1.81703e-05 -3.51544e-07 -2.08986e-05 
-1.23626e-05 -3.73839e-07 -2.22966e-05 -6.2566e-06 -3.87306e-07 -2.31484e-05 0 -3.91809e-07 -2.34345e-05 
0 3.33162e-07 2.35122e-05 -6.26745e-06 3.29327e-07 2.32252e-05 -1.23842e-05 3.1786e-07 2.23709e-05 
-1.82024e-05 2.98878e-07 2.09686e-05 -2.35802e-05 2.72615e-07 1.90508e-05 -2.83849e-05 2.39468e-07 1.66623e-05 
-3.24963e-05 2.00041e-07 1.386e-05 -3.581e-05 1.55175e-07 1.07116e-05 -3.82407e-05 1.05958e-07 7.29455e-06 
-3.97251e-05 5.36972e-08 3.69379e-06 -4.02242e-05 -1.28982e-10 -1.98736e-10 -3.97249e-05 -5.39536e-08 -3.69417e-06 
-3.82404e-05 -1.0621e-07 -7.29489e-06 -3.58096e-05 -1.5542e-07 -1.07119e-05 -3.24959e-05 -2.00276e-07 -1.38602e-05 
-2.83844e-05 -2.39693e-07 -1.66624e-05 -2.35797e-05 -2.7283e-07 -1.90508e-05 -1.8202e-05 -2.99084e-07 -2.09685e-05 
-1.23839e-05 -3.18059e-07 -2.23707e-05 -6.2673e-06 -3.29521e-07 -2.32251e-05 0 -3.33354e-07 -2.3512e-05 
0 2.42091e-07 2.35737e-05 -6.27596e-06 2.39304e-07 2.32861e-05 -1.24011e-05 2.30969e-07 2.24297e-05 
-1.82275e-05 2.17172e-07 2.10241e-05 -2.36132e-05 1.98084e-07 1.91016e-05 -2.84253e-05 1.73995e-07 1.67071e-05 
-3.25432e-05 1.45344e-07 1.38976e-05 -3.58624e-05 1.12742e-07 1.07409e-05 -3.82972e-05 7.69821e-08 7.31456e-06 
-3.97841e-05 3.90126e-08 3.70395e-06 -4.02841e-05 -9.38002e-11 -2.21637e-10 -3.9784e-05 -3.9199e-08 -3.70438e-06 
-3.82969e-05 -7.71651e-08 -7.31495e-06 -3.5862e-05 -1.1292e-07 -1.07412e-05 -3.25428e-05 -1.45515e-07 -1.38978e-05 
-2.84248e-05 -1.74158e-07 -1.67072e-05 -2.36128e-05 -1.9824e-07 -1.91016e-05 -1.82271e-05 -2.17321e-07 -2.1024e-05 
-1.24008e-05 -2.31113e-07 -2.24296e-05 -6.27581e-06 -2.39445e-07 -2.32859e-05 0 -2.42231e-07 -2.35735e-05 
0 1.27287e-07 2.36132e-05 -6.28143e-06 1.25821e-07 2.33251e-05 -1.2412e-05 1.21438e-07 2.24675e-05 
-1.82437e-05 1.14182e-07 2.10597e-05 -2.36345e-05 1.04145e-07 1.91342e-05 -2.84513e-05 9.14779e-08 1.67359e-05 
-3.25734e-05 7.64135e-08 1.39217e-05 -3.5896e-05 5.92727e-08 1.07596e-05 -3.83335e-05 4.04719e-08 7.32742e-06 
-3.98221e-05 2.05097e-08 3.71047e-06 -4.03227e-05 -4.93439e-11 -2.36364e-10 -3.98219e-05 -2.06078e-08 -3.71093e-06 
-3.83332e-05 -4.05682e-08 -7.32783e-06 -3.58956e-05 -5.93662e-08 -1.076e-05 -3.25729e-05 -7.65035e-08 -1.39219e-05 
-2.84508e-05 -9.1564e-08 -1.6736e-05 -2.3634e-05 -1.04227e-07 -1.91342e-05 -1.82433e-05 -1.14261e-07 -2.10597e-05 
-1.24117e-05 -1.21514e-07 -2.24674e-05 -6.28128e-06 -1.25895e-07 -2.3325e-05 0 -1.2736e-07 -2.36131e-05 
0 -4.77164e-18 2.36268e-05 -6.28332e-06 -4.75817e-18 2.33386e-05 -1.24158e-05 -4.74758e-18 2.24805e-05 
-1.82493e-05 -4.71779e-18 2.1072e-05 -2.36418e-05 -4.67639e-18 1.91454e-05 -2.84602e-05 -4.6338e-18 1.67458e-05 
-3.25838e-05 -4.57882e-18 1.393e-05 -3.59077e-05 -4.52022e-18 1.07661e-05 -3.8346e-05 -4.45179e-18 7.33184e-06 
-3.98352e-05 -4.38786e-18 3.71272e-06 -4.03359e-05 -4.31241e-18 -2.41443e-10 -3.9835e-05 -4.24437e-18 -3.71319e-06 
-3.83457e-05 -4.17565e-18 -7.33227e-06 -3.59073e-05 -4.1065e-18 -1.07665e-05 -3.25833e-05 -4.03142e-18 -1.39303e-05 
-2.84597e-05 -3.99685e-18 -1.67459e-05 -2.36413e-05 -3.95986e-18 -1.91455e-05 -1.82489e-05 -3.92936e-18 -2.1072e-05 
-1.24155e-05 -3.90211e-18 -2.24804e-05 -6.28316e-06 -3.88706e-18 -2.33385e-05 0 -3.87656e-18 -2.36267e-05 
0 -1.27287e-07 2.36132e-05 -6.28143e-06 -1.25821e-07 2.33251e-05 -1.2412e-05 -1.21438e-07 2.24675e-05 
-1.82437e-05 -1.14182e-07 2.10597e-05 -2.36345e-05 -1.04145e-07 1.91342e-05 -2.84513e-05 -9.14779e-08 1.67359e-05 
-3.25734e-05 -7.64135e-08 1.39217e-05 -3.5896e-05 -5.92727e-08 1.07596e-05 -3.83335e-05 -4.04719e-08 7.32742e-06 
-3.98221e-05 -2.05097e-08 3.71047e-06 -4.03227e-05 4.93439e-11 -2.36364e-10 -3.98219e-05 2.06078e-08 -3.71093e-06 
-3.83332e-05 4.05682e-08 -7.32783e-06 -3.58956e-05 5.93662e-08 -1.076e-05 -3.25729e-05 7.65035e-08 -1.39219e-05 
-2.84508e-05 9.1564e-08 -1.6736e-05 -2.3634e-05 1.04227e-07 -1.91342e-05 -1.82433e-05 1.14261e-07 -2.10597e-05 
-1.24117e-05 1.21514e-07 -2.24674e-05 -6.28128e-06 1.25895e-07 -2.3325e-05 0 1.2736e-07 -2.36131e-05 
0 -2.42091e-07 2.35737e-05 -6.27596e-06 -2.39304e-07 2.32861e-05 -1.24011e-05 -2.30969e-07 2.24297e-05 
-1.82275e-05 -2.17172e-07 2.10241e-05 -2.36132e-05 -1.98084e-07 1.91016e-05 -2.84253e-05 -1.73995e-07 1.67071e-05 
-3.25432e-05 -1.45344e-07 1.38976e-05 -3.58624e-05 -1.12742e-07 1.07409e-05 -3.82972e-05 -7.69821e-08 7.31456e-06 
-3.97841e-05 -3.90126e-08 3.70395e-06 -4.02841e-05 9.38001e-11 -2.21637e-10 -3.9784e-05 3.9199e-08 -3.70438e-06 
-3.82969e-05 7.71651e-08 -7.31495e-06 -3.5862e-05 1.1292e-07 -1.07412e-05 -3.25428e-05 1.45515e-07 -1.38978e-05 
-2.84248e-05 1.74158e-07 -1.67072e-05 -2.36128e-05 1.9824e-07 -1.91016e-05 -1.82271e-05 2.17321e-07 -2.1024e-05 
-1.24008e-05 2.31113e-07 -2.24296e-05 -6.27581e-06 2.39445e-07 -2.32859e-05 0 2.42231e-07 -2.35735e-05 
0 -3.33162e-07 2.35122e-05 -6.26745e-06 -3.29327e-07 2.32252e-05 -1.23842e-05 -3.1786e-07 2.23709e-05 
-1.82024e-05 -2.98878e-07 2.09686e-05 -2.35802e-05 -2.72615e-07 1.90508e-05 -2.83849e-05 -2.39468e-07 1.66623e-05 
-3.24963e-05 -2.00041e-07 1.386e-05 -3.581e-05 -1.55175e-07 1.07116e-05 -3.82407e-05 -1.05958e-07 7.29455e-06 
-3.97251e-05 -5.36972e-08 3.69379e-06 -4.02242e-05 1.28981e-10 -1.98736e-10 -3.97249e-05 5.39536e-08 -3.69417e-06 
-3.82404e-05 1.0621e-07 -7.29489e-06 -3.58096e-05 1.5542e-07 -1.07119e-05 -3.24959e-05 2.00276e-07 -1.38602e-05 
-2.83844e-05 2.39693e-07 -1.66624e-05 -2.35797e-05 2.7283e-07 -1.90508e-05 -1.8202e-05 2.99084e-07 -2.09685e-05 
-1.23839e-05 3.18059e-07 -2.23707e-05 -6.2673e-06 3.29521e-07 -2.32251e-05 0 3.33354e-07 -2.3512e-05 
0 -3.91583e-07 2.34347e-05 -6.25674e-06 -3.87078e-07 2.31486e-05 -1.23629e-05 -3.73606e-07 2.22968e-05 
-1.81707e-05 -3.51302e-07 2.08987e-05 -2.35386e-05 -3.20442e-07 1.89868e-05 -2.83341e-05 -2.8149e-07 1.66059e-05 
-3.24373e-05 -2.35152e-07 1.38127e-05 -3.57441e-05 -1.82416e-07 1.06748e-05 -3.81696e-05 -1.24562e-07 7.26932e-06 
-3.96508e-05 -6.31267e-08 3.68098e-06 -4.01488e-05 1.51444e-10 -1.69945e-10 -3.96506e-05 6.34277e-08 -3.68131e-06 
-3.81693e-05 1.24857e-07 -7.2696e-06 -3.57437e-05 1.82703e-07 -1.0675e-05 -3.24368e-05 2.35428e-07 -1.38128e-05 
-2.83336e-05 2.81754e-07 -1.66059e-05 -2.35381e-05 3.20695e-07 -1.89867e-05 -1.81703e-05 3.51544e-07 -2.08986e-05 
-1.23626e-05 3.73839e-07 -2.22966e-05 -6.2566e-06 3.87306e-07 -2.31484e-05 0 3.91809e-07 -2.34345e-05 
0 -4.11651e-07 2.33489e-05 -6.24491e-06 -4.06917e-07 2.30637e-05 -1.23393e-05 -3.9276e-07 2.22147e-05 
-1.81357e-05 -3.69323e-07 2.08213e-05 -2.34926e-05 -3.36891e-07 1.89159e-05 -2.82779e-05 -2.9595e-07 1.65433e-05 
-3.2372e-05 -2.4724e-07 1.37602e-05 -3.56712e-05 -1.91801e-07 1.06339e-05 -3.8091e-05 -1.30974e-07 7.24135e-06 
-3.95685e-05 -6.63771e-08 3.66678e-06 -4.00654e-05 1.59024e-10 -1.38114e-10 -3.95684e-05 6.66932e-08 -3.66704e-06 
-3.80907e-05 1.31284e-07 -7.24157e-06 -3.56709e-05 1.92102e-07 -1.06341e-05 -3.23716e-05 2.4753e-07 -1.37603e-05 
-2.82774e-05 2.96227e-07 -1.65433e-05 -2.34922e-05 3.37156e-07 -1.89158e-05 -1.81353e-05 3.69577e-07 -2.08211e-05 
-1.2339e-05 3.93005e-07 -2.22144e-05 -6.24476e-06 4.07157e-07 -2.30635e-05 0 4.11888e-07 -2.33487e-05 
0 -3.91422e-07 2.32632e-05 -6.2331e-06 -3.86924e-07 2.29789e-05 -1.23158e-05 -3.73469e-07 2.21326e-05 
-1.81007e-05 -3.51191e-07 2.07439e-05 -2.34467e-05 -3.20362e-07 1.8845e-05 -2.82218e-05 -2.8144e-07 1.64808e-05 
-3.23068e-05 -2.35127e-07 1.37077e-05 -3.55985e-05 -1.8241e-07 1.05931e-05 -3.80125e-05 -1.24564e-07 7.21338e-06 
-3.94865e-05 -6.31302e-08 3.65258e-06 -3.99821e-05 1.51038e-10 -1.06374e-10 -3.94863e-05 6.34304e-08 -3.65278e-06 
-3.80122e-05 1.24859e-07 -7.21354e-06 -3.55981e-05 1.82696e-07 -1.05932e-05 -3.23064e-05 2.35403e-07 -1.37078e-05 
-2.82214e-05 2.81703e-07 -1.64807e-05 -2.34463e-05 3.20614e-07 -1.88449e-05 -1.81004e-05 3.51433e-07 -2.07436e-05 
-1.23155e-05 3.73701e-07 -2.21323e-05 -6.23296e-06 3.87151e-07 -2.29786e-05 0 3.91648e-07 -2.32629e-05 
0 -3.32902e-07 2.31859e-05 -6.22247e-06 -3.29077e-07 2.29024e-05 -1.22946e-05 -3.17638e-07 2.20586e-05 
-1.80693e-05 -2.98698e-07 2.06741e-05 -2.34054e-05 -2.72485e-07 1.87811e-05 -2.81713e-05 -2.39387e-07 1.64244e-05 
-3.22482e-05 -2.00001e-07 1.36604e-05 -3.5533e-05 -1.55164e-07 1.05562e-05 -3.79418e-05 -1.05961e-07 7.18814e-06 
-3.94126e-05 -5.3703e-08 3.63976e-06 -3.99071e-05 1.28324e-10 -7.78176e-11 -3.94125e-05 5.39581e-08 -3.6399e-06 
-3.79416e-05 1.06212e-07 -7.18825e-06 -3.55326e-05 1.55408e-07 -1.05563e-05 -3.22478e-05 2.00235e-07 -1.36604e-05 
-2.81709e-05 2.39611e-07 -1.64243e-05 -2.3405e-05 2.72699e-07 -1.87809e-05 -1.80689e-05 2.98903e-07 -2.06738e-05 
-1.22944e-05 3.17836e-07 -2.20583e-05 -6.22233e-06 3.29271e-07 -2.29021e-05 0 3.33093e-07 -2.31855e-05 
0 -2.41831e-07 2.31245e-05 -6.21405e-06 -2.39054e-07 2.28417e-05 -1.22779e-05 -2.30747e-07 2.19999e-05 
-1.80444e-05 -2.16992e-07 2.06187e-05 -2.33727e-05 -1.97954e-07 1.87303e-05 -2.81313e-05 -1.73914e-07 1.63796e-05 
-3.22017e-05 -1.45304e-07 1.36229e-05 -3.54811e-05 -1.12732e-07 1.0527e-05 -3.78858e-05 -7.69857e-08 7.16811e-06 
-3.9354e-05 -3.90182e-08 3.62959e-06 -3.98477e-05 9.3143e-11 -5.52075e-11 -3.93539e-05 3.92034e-08 -3.62969e-06 
-3.78856e-05 7.71675e-08 -7.16817e-06 -3.54807e-05 1.12908e-07 -1.0527e-05 -3.22013e-05 1.45474e-07 -1.36228e-05 
-2.81309e-05 1.74076e-07 -1.63795e-05 -2.33723e-05 1.98109e-07 -1.87301e-05 -1.8044e-05 2.17141e-07 -2.06184e-05 
-1.22776e-05 2.30891e-07 -2.19996e-05 -6.21392e-06 2.39194e-07 -2.28414e-05 0 2.4197e-07 -2.31241e-05 
0 -1.27126e-07 2.30852e-05 -6.20865e-06 -1.25666e-07 2.28028e-05 -1.22671e-05 -1.21301e-07 2.19623e-05 
-1.80284e-05 -1.14071e-07 2.05831e-05 -2.33517e-05 -1.04064e-07 1.86978e-05 -2.81057e-05 -9.14279e-08 1.63509e-05 
-3.21719e-05 -7.63888e-08 1.35988e-05 -3.54478e-05 -5.92661e-08 1.05082e-05 -3.78499e-05 -4.04739e-08 7.15525e-06 
-3.93165e-05 -2.05133e-08 3.62306e-06 -3.98096e-05 4.89378e-11 -4.07153e-11 -3.93164e-05 2.06106e-08 -3.62313e-06 
-3.78497e-05 4.05694e-08 -7.15528e-06 -3.54475e-05 5.93588e-08 -1.05082e-05 -3.21715e-05 7.64781e-08 -1.35987e-05 
-2.81053e-05 9.15134e-08 -1.63507e-05 -2.33513e-05 1.04146e-07 -1.86975e-05 -1.80281e-05 1.14149e-07 -2.05828e-05 
-1.22669e-05 1.21376e-07 -2.19619e-05 -6.20852e-06 1.2574e-07 -2.28024e-05 0 1.27199e-07 -2.30848e-05 
0 0 2.30716e-05 -6.20679e-06 0 2.27894e-05 -1.22634e-05 0 2.19493e-05 
-1.80229e-05 0 2.05709e-05 -2.33445e-05 0 1.86866e-05 -2.80969e-05 0 1.6341e-05 
-3.21616e-05 0 1.35904e-05 -3.54363e-05 0 1.05018e-05 -3.78375e-05 0 7.15082e-06 
-3.93036e-05 0 3.62081e-06 -3.97964e-05 0 -3.57261e-11 -3.93034e-05 0 -3.62087e-06 
-3.78373e-05 0 -7.15084e-06 -3.5436e-05 0 -1.05017e-05 -3.21612e-05 0 -1.35904e-05 
-2.80964e-05 0 -1.63408e-05 -2.33441e-05 0 -1.86863e-05 -1.80226e-05 0 -2.05706e-05 
-1.22632e-05 0 -2.19489e-05 -6.20666e-06 0 -2.2789e-05 0 0 -2.30712e-05 
0 0 5.23639e-05 -1.11408e-05 0 5.17246e-05 -2.20128e-05 0 4.98211e-05 
-3.23525e-05 0 4.66971e-05 -4.19077e-05 0 4.24251e-05 -5.04425e-05 0 3.71051e-05 
-5.7744e-05 0 3.08639e-05 -6.36274e-05 0 2.38526e-05 -6.79423e-05 0 1.62433e-05 
-7.05769e-05 0 8.22534e-06 -7.14628e-05 0 -8.85517e-11 -7.05767e-05 0 -8.22549e-06 
-6.79418e-05 0 -1.62434e-05 -6.36268e-05 0 -2.38526e-05 -5.77432e-05 0 -3.08637e-05 
-5.04417e-05 0 -3.71047e-05 -4.19069e-05 0 -4.24244e-05 -3.23519e-05 0 -4.66963e-05 
-2.20123e-05 0 -4.98201e-05 -1.11406e-05 0 -5.17235e-05 0 0 -5.23629e-05 
0 2.42734e-07 5.24006e-05 -1.11444e-05 2.40004e-07 5.17609e-05 -2.202e-05 2.31827e-07 4.98562e-05 
-3.23633e-05 2.18246e-07 4.67304e-05 -4.19218e-05 1.99373e-07 4.24556e-05 -5.04599e-05 1.75428e-07 3.71321e-05 
-5.77643e-05 1.46793e-07 3.08867e-05 -6.36502e-05 1.14044e-07 2.38704e-05 -6.79669e-05 7.79674e-08 1.62555e-05 
-7.06027e-05 3.9545e-08 8.23154e-06 -7.1489e-05 -9.08283e-11 -1.01631e-10 -7.06025e-05 -3.97255e-08 -8.23172e-06 
-6.79664e-05 -7.81441e-08 -1.62556e-05 -6.36496e-05 -1.14215e-07 -2.38703e-05 -5.77635e-05 -1.46957e-07 -3.08865e-05 
-5.04591e-05 -1.75584e-07 -3.71317e-05 -4.19211e-05 -1.99521e-07 -4.2455e-05 -3.23626e-05 -2.18388e-07 -4.67296e-05 