# vtk DataFile Version 5.1
vtk output
ASCII
DATASET UNSTRUCTURED_GRID
POINTS 9261 float
0 0 -30 1 0 -30 2 0 -30 
3 0 -30 4 0 -30 5 0 -30 
6 0 -30 7 0 -30 8 0 -30 
9 0 -30 10 0 -30 11 0 -30 
12 0 -30 13 0 -30 14 0 -30 
15 0 -30 16 0 -30 17 0 -30 
18 0 -30 19 0 -30 20 0 -30 
0 1 -30 1 1 -30 2 1 -30 
3 1 -30 4 1 -30 5 1 -30 
6 1 -30 7 1 -30 8 1 -30 
9 1 -30 10 1 -30 11 1 -30 
12 1 -30 13 1 -30 14 1 -30 
15 1 -30 16 1 -30 17 1 -30 
18 1 -30 19 1 -30 20 1 -30 
0 2 -30 1 2 -30 2 2 -30 
3 2 -30 4 2 -30 5 2 -30 
6 2 -30 7 2 -30 8 2 -30 
9 2 -30 10 2 -30 11 2 -30 
12 2 -30 13 2 -30 14 2 -30 
15 2 -30 16 2 -30 17 2 -30 
18 2 -30 19 2 -30 20 2 -30 
0 3 -30 1 3 -30 2 3 -30 
3 3 -30 4 3 -30 5 3 -30 
6 3 -30 7 3 -30 8 3 -30 
9 3 -30 10 3 -30 11 3 -30 
12 3 -30 13 3 -30 14 3 -30 
15 3 -30 16 3 -30 17 3 -30 
18 3 -30 19 3 -30 20 3 -30 
0 4 -30 1 4 -30 2 4 -30 
3 4 -30 4 4 -30 5 4 -30 
6 4 -30 7 4 -30 8 4 -30 
9 4 -30 10 4 -30 11 4 -30 
12 4 -30 13 4 -30 14 4 -30 
15 4 -30 16 4 -30 17 4 -30 
18 4 -30 19 4 -30 20 4 -30 
0 5 -30 1 5 -30 2 5 -30 
3 5 -30 4 5 -30 5 5 -30 
6 5 -30 7 5 -30 8 5 -30 
9 5 -30 10 5 -30 11 5 -30 
12 5 -30 13 5 -30 14 5 -30 
15 5 -30 16 5 -30 17 5 -30 
18 5 -30 19 5 -30 20 5 -30 
0 6 -30 1 6 -30 2 6 -30 
3 6 -30 4 6 -30 5 6 -30 
6 6 -30 7 6 -30 8 6 -30 
9 6 -30 10 6 -30 11 6 -30 
12 6 -30 13 6 -30 14 6 -30 
15 6 -30 16 6 -30 17 6 -30 
18 6 -30 19 6 -30 20 6 -30 
0 7 -30 1 7 -30 2 7 -30 
3 7 -30 4 7 -30 5 7 -30 
6 7 -30 7 7 -30 8 7 -30 
9 7 -30 10 7 -30 11 7 -30 
12 7 -30 13 7 -30 14 7 -30 
15 7 -30 16 7 -30 17 7 -30 
18 7 -30 19 7 -30 20 7 -30 
0 8 -30 1 8 -30 2 8 -30 
3 8 -30 4 8 -30 5 8 -30 
6 8 -30 7 8 -30 8 8 -30 
9 8 -30 10 8 -30 11 8 -30 
12 8 -30 13 8 -30 14 8 -30 
15 8 -30 16 8 -30 17 8 -30 
18 8 -30 19 8 -30 20 8 -30 
0 9 -30 1 9 -30 2 9 -30 
3 9 -30 4 9 -30 5 9 -30 
6 9 -30 7 9 -30 8 9 -30 
9 9 -30 10 9 -30 11 9 -30 
12 9 -30 13 9 -30 14 9 -30 
15 9 -30 16 9 -30 17 9 -30 
18 9 -30 19 9 -30 20 9 -30 
0 10 -30 1 10 -30 2 10 -30 
3 10 -30 4 10 -30 5 10 -30 
6 10 -30 7 10 -30 8 10 -30 
9 10 -30 10 10 -30 11 10 -30 
12 10 -30 13 10 -30 14 10 -30 
15 10 -30 16 10 -30 17 10 -30 
18 10 -30 19 10 -30 20 10 -30 
0 11 -30 1 11 -30 2 11 -30 
3 11 -30 4 11 -30 5 11 -30 
6 11 -30 7 11 -30 8 11 -30 
9 11 -30 10 11 -30 11 11 -30 
12 11 -30 13 11 -30 14 11 -30 
15 11 -30 16 11 -30 17 11 -30 
18 11 -30 19 11 -30 20 11 -30 
0 12 -30 1 12 -30 2 12 -30 
3 12 -30 4 12 -30 5 12 -30 
6 12 -30 7 12 -30 8 12 -30 
9 12 -30 10 12 -30 11 12 -30 
12 12 -30 13 12 -30 14 12 -30 
15 12 -30 16 12 -30 17 12 -30 
18 12 -30 19 12 -30 20 12 -30 
0 13 -30 1 13 -30 2 13 -30 
3 13 -30 4 13 -30 5 13 -30 
6 13 -30 7 13 -30 8 13 -30 
9 13 -30 10 13 -30 11 13 -30 
12 13 -30 13 13 -30 14 13 -30 
15 13 -30 16 13 -30 17 13 -30 
18 13 -30 19 13 -30 20 13 -30 
0 14 -30 1 14 -30 2 14 -30 
3 14 -30 4 14 -30 5 14 -30 
6 14 -30 7 14 -30 8 14 -30 
9 14 -30 10 14 -30 11 14 -30 
12 14 -30 13 14 -30 14 14 -30 
15 14 -30 16 14 -30 17 14 -30 
18 14 -30 19 14 -30 20 14 -30 
0 15 -30 1 15 -30 2 15 -30 
3 15 -30 4 15 -30 5 15 -30 
6 15 -30 7 15 -30 8 15 -30 
9 15 -30 10 15 -30 11 15 -30 
12 15 -30 13 15 -30 14 15 -30 
15 15 -30 16 15 -30 17 15 -30 
18 15 -30 19 15 -30 20 15 -30 
0 16 -30 1 16 -30 2 16 -30 
3 16 -30 4 16 -30 5 16 -30 
6 16 -30 7 16 -30 8 16 -30 
9 16 -30 10 16 -30 11 16 -30 
12 16 -30 13 16 -30 14 16 -30 
15 16 -30 16 16 -30 17 16 -30 
18 16 -30 19 16 -30 20 16 -30 
0 17 -30 1 17 -30 2 17 -30 
3 17 -30 4 17 -30 5 17 -30 
6 17 -30 7 17 -30 8 17 -30 
9 17 -30 10 17 -30 11 17 -30 
12 17 -30 13 17 -30 14 17 -30 
15 17 -30 16 17 -30 17 17 -30 
18 17 -30 19 17 -30 20 17 -30 
0 18 -30 1 18 -30 2 18 -30 
3 18 -30 4 18 -30 5 18 -30 
6 18 -30 7 18 -30 8 18 -30 
9 18 -30 10 18 -30 11 18 -30 
12 18 -30 13 18 -30 14 18 -30 
15 18 -30 16 18 -30 17 18 -30 
18 18 -30 19 18 -30 20 18 -30 
0 19 -30 1 19 -30 2 19 -30 
3 19 -30 4 19 -30 5 19 -30 
6 19 -30 7 19 -30 8 19 -30 
9 19 -30 10 19 -30 11 19 -30 
12 19 -30 13 19 -30 14 19 -30 
15 19 -30 16 19 -30 17 19 -30 
18 19 -30 19 19 -30 20 19 -30 
0 20 -30 1 20 -30 2 20 -30 
3 20 -30 4 20 -30 5 20 -30 
6 20 -30 7 20 -30 8 20 -30 
9 20 -30 10 20 -30 11 20 -30 
12 20 -30 13 20 -30 14 20 -30 
15 20 -30 16 20 -30 17 20 -30 
18 20 -30 19 20 -30 20 20 -30 
0 0 -28.5 1 0 -28.5 2 0 -28.5 
3 0 -28.5 4 0 -28.5 5 0 -28.5 
6 0 -28.5 7 0 -28.5 8 0 -28.5 
9 0 -28.5 10 0 -28.5 11 0 -28.5 
12 0 -28.5 13 0 -28.5 14 0 -28.5 
15 0 -28.5 16 0 -28.5 17 0 -28.5 
18 0 -28.5 19 0 -28.5 20 0 -28.5 
0 1 -28.5 1 1 -28.5 2 1 -28.5 
3 1 -28.5 4 1 -28.5 5 1 -28.5 
6 1 -28.5 7 1 -28.5 8 1 -28.5 
9 1 -28.5 10 1 -28.5 11 1 -28.5 
12 1 -28.5 13 1 -28.5 14 1 -28.5 
15 1 -28.5 16 1 -28.5 17 1 -28.5 
18 1 -28.5 19 1 -28.5 20 1 -28.5 
0 2 -28.5 1 2 -28.5 2 2 -28.5 
3 2 -28.5 4 2 -28.5 5 2 -28.5 
6 2 -28.5 7 2 -28.5 8 2 -28.5 
9 2 -28.5 10 2 -28.5 11 2 -28.5 
12 2 -28.5 13 2 -28.5 14 2 -28.5 
15 2 -28.5 16 2 -28.5 17 2 -28.5 
18 2 -28.5 19 2 -28.5 20 2 -28.5 
0 3 -28.5 1 3 -28.5 2 3 -28.5 
3 3 -28.5 4 3 -28.5 5 3 -28.5 
6 3 -28.5 7 3 -28.5 8 3 -28.5 
9 3 -28.5 10 3 -28.5 11 3 -28.5 
12 3 -28.5 13 3 -28.5 14 3 -28.5 
15 3 -28.5 16 3 -28.5 17 3 -28.5 
18 3 -28.5 19 3 -28.5 20 3 -28.5 
0 4 -28.5 1 4 -28.5 2 4 -28.5 
3 4 -28.5 4 4 -28.5 5 4 -28.5 
6 4 -28.5 7 4 -28.5 8 4 -28.5 
9 4 -28.5 10 4 -28.5 11 4 -28.5 
12 4 -28.5 13 4 -28.5 14 4 -28.5 
15 4 -28.5 16 4 -28.5 17 4 -28.5 
18 4 -28.5 19 4 -28.5 20 4 -28.5 
0 5 -28.5 1 5 -28.5 2 5 -28.5 
3 5 -28.5 4 5 -28.5 5 5 -28.5 
6 5 -28.5 7 5 -28.5 8 5 -28.5 
9 5 -28.5 10 5 -28.5 11 5 -28.5 
12 5 -28.5 13 5 -28.5 14 5 -28.5 
15 5 -28.5 16 5 -28.5 17 5 -28.5 
18 5 -28.5 19 5 -28.5 20 5 -28.5 
0 6 -28.5 1 6 -28.5 2 6 -28.5 
3 6 -28.5 4 6 -28.5 5 6 -28.5 
6 6 -28.5 7 6 -28.5 8 6 -28.5 
9 6 -28.5 10 6 -28.5 11 6 -28.5 
12 6 -28.5 13 6 -28.5 14 6 -28.5 
15 6 -28.5 16 6 -28.5 17 6 -28.5 
18 6 -28.5 19 6 -28.5 20 6 -28.5 
0 7 -28.5 1 7 -28.5 2 7 -28.5 
3 7 -28.5 4 7 -28.5 5 7 -28.5 
6 7 -28.5 7 7 -28.5 8 7 -28.5 
9 7 -28.5 10 7 -28.5 11 7 -28.5 
12 7 -28.5 13 7 -28.5 14 7 -28.5 
15 7 -28.5 16 7 -28.5 17 7 -28.5 
18 7 -28.5 19 7 -28.5 20 7 -28.5 
0 8 -28.5 1 8 -28.5 2 8 -28.5 
3 8 -28.5 4 8 -28.5 5 8 -28.5 
6 8 -28.5 7 8 -28.5 8 8 -28.5 
9 8 -28.5 10 8 -28.5 11 8 -28.5 
12 8 -28.5 13 8 -28.5 14 8 -28.5 
15 8 -28.5 16 8 -28.5 17 8 -28.5 
18 8 -28.5 19 8 -28.5 20 8 -28.5 
0 9 -28.5 1 9 -28.5 2 9 -28.5 
3 9 -28.5 4 9 -28.5 5 9 -28.5 
6 9 -28.5 7 9 -28.5 8 9 -28.5 
9 9 -28.5 10 9 -28.5 11 9 -28.5 
12 9 -28.5 13 9 -28.5 14 9 -28.5 
15 9 -28.5 16 9 -28.5 17 9 -28.5 
18 9 -28.5 19 9 -28.5 20 9 -28.5 
0 10 -28.5 1 10 -28.5 2 10 -28.5 
3 10 -28.5 4 10 -28.5 5 10 -28.5 
6 10 -28.5 7 10 -28.5 8 10 -28.5 
9 10 -28.5 10 10 -28.5 11 10 -28.5 
12 10 -28.5 13 10 -28.5 14 10 -28.5 
15 10 -28.5 16 10 -28.5 17 10 -28.5 
18 10 -28.5 19 10 -28.5 20 10 -28.5 
0 11 -28.5 1 11 -28.5 2 11 -28.5 
3 11 -28.5 4 11 -28.5 5 11 -28.5 
6 11 -28.5 7 11 -28.5 8 11 -28.5 
9 11 -28.5 10 11 -28.5 11 11 -28.5 
12 11 -28.5 13 11 -28.5 14 11 -28.5 
15 11 -28.5 16 11 -28.5 17 11 -28.5 
18 11 -28.5 19 11 -28.5 20 11 -28.5 
0 12 -28.5 1 12 -28.5 2 12 -28.5 
3 12 -28.5 4 12 -28.5 5 12 -28.5 
6 12 -28.5 7 12 -28.5 8 12 -28.5 
9 12 -28.5 10 12 -28.5 11 12 -28.5 
12 12 -28.5 13 12 -28.5 14 12 -28.5 
15 12 -28.5 16 12 -28.5 17 12 -28.5 
18 12 -28.5 19 12 -28.5 20 12 -28.5 
0 13 -28.5 1 13 -28.5 2 13 -28.5 
3 13 -28.5 4 13 -28.5 5 13 -28.5 
6 13 -28.5 7 13 -28.5 8 13 -28.5 
9 13 -28.5 10 13 -28.5 11 13 -28.5 
12 13 -28.5 13 13 -28.5 14 13 -28.5 
15 13 -28.5 16 13 -28.5 17 13 -28.5 
18 13 -28.5 19 13 -28.5 20 13 -28.5 
0 14 -28.5 1 14 -28.5 2 14 -28.5 
3 14 -28.5 4 14 -28.5 5 14 -28.5 
6 14 -28.5 7 14 -28.5 8 14 -28.5 
9 14 -28.5 10 14 -28.5 11 14 -28.5 
12 14 -28.5 13 14 -28.5 14 14 -28.5 
15 14 -28.5 16 14 -28.5 17 14 -28.5 
18 14 -28.5 19 14 -28.5 20 14 -28.5 
0 15 -28.5 1 15 -28.5 2 15 -28.5 
3 15 -28.5 4 15 -28.5 5 15 -28.5 
6 15 -28.5 7 15 -28.5 8 15 -28.5 
9 15 -28.5 10 15 -28.5 11 15 -28.5 
12 15 -28.5 13 15 -28.5 14 15 -28.5 
15 15 -28.5 16 15 -28.5 17 15 -28.5 
18 15 -28.5 19 15 -28.5 20 15 -28.5 
0 16 -28.5 1 16 -28.5 2 16 -28.5 
3 16 -28.5 4 16 -28.5 5 16 -28.5 
6 16 -28.5 7 16 -28.5 8 16 -28.5 
9 16 -28.5 10 16 -28.5 11 16 -28.5 
12 16 -28.5 13 16 -28.5 14 16 -28.5 
15 16 -28.5 16 16 -28.5 17 16 -28.5 
18 16 -28.5 19 16 -28.5 20 16 -28.5 
0 17 -28.5 1 17 -28.5 2 17 -28.5 
3 17 -28.5 4 17 -28.5 5 17 -28.5 
6 17 -28.5 7 17 -28.5 8 17 -28.5 
9 17 -28.5 10 17 -28.5 11 17 -28.5 
12 17 -28.5 13 17 -28.5 14 17 -28.5 
15 17 -28.5 16 17 -28.5 17 17 -28.5 
18 17 -28.5 19 17 -28.5 20 17 -28.5 
0 18 -28.5 1 18 -28.5 2 18 -28.5 
3 18 -28.5 4 18 -28.5 5 18 -28.5 
6 18 -28.5 7 18 -28.5 8 18 -28.5 
9 18 -28.5 10 18 -28.5 11 18 -28.5 
12 18 -28.5 13 18 -28.5 14 18 -28.5 
15 18 -28.5 16 18 -28.5 17 18 -28.5 
18 18 -28.5 19 18 -28.5 20 18 -28.5 
0 19 -28.5 1 19 -28.5 2 19 -28.5 
3 19 -28.5 4 19 -28.5 5 19 -28.5 
6 19 -28.5 7 19 -28.5 8 19 -28.5 
9 19 -28.5 10 19 -28.5 11 19 -28.5 
12 19 -28.5 13 19 -28.5 14 19 -28.5 
15 19 -28.5 16 19 -28.5 17 19 -28.5 
18 19 -28.5 19 19 -28.5 20 19 -28.5 
0 20 -28.5 1 20 -28.5 2 20 -28.5 
3 20 -28.5 4 20 -28.5 5 20 -28.5 
6 20 -28.5 7 20 -28.5 8 20 -28.5 
9 20 -28.5 10 20 -28.5 11 20 -28.5 
12 20 -28.5 13 20 -28.5 14 20 -28.5 
15 20 -28.5 16 20 -28.5 17 20 -28.5 
18 20 -28.5 19 20 -28.5 20 20 -28.5 
0 0 -27 1 0 -27 2 0 -27 
3 0 -27 4 0 -27 5 0 -27 
6 0 -27 7 0 -27 8 0 -27 
9 0 -27 10 0 -27 11 0 -27 
12 0 -27 13 0 -27 14 0 -27 
15 0 -27 16 0 -27 17 0 -27 
18 0 -27 19 0 -27 20 0 -27 
0 1 -27 1 1 -27 2 1 -27 
3 1 -27 4 1 -27 5 1 -27 
6 1 -27 7 1 -27 8 1 -27 
9 1 -27 10 1 -27 11 1 -27 
12 1 -27 13 1 -27 14 1 -27 
15 1 -27 16 1 -27 17 1 -27 
18 1 -27 19 1 -27 20 1 -27 
0 2 -27 1 2 -27 2 2 -27 
3 2 -27 4 2 -27 5 2 -27 
6 2 -27 7 2 -27 8 2 -27 
9 2 -27 10 2 -27 11 2 -27 
12 2 -27 13 2 -27 14 2 -27 
15 2 -27 16 2 -27 17 2 -27 
18 2 -27 19 2 -27 20 2 -27 
0 3 -27 1 3 -27 2 3 -27 
3 3 -27 4 3 -27 5 3 -27 
6 3 -27 7 3 -27 8 3 -27 
9 3 -27 10 3 -27 11 3 -27 
12 3 -27 13 3 -27 14 3 -27 
15 3 -27 16 3 -27 17 3 -27 
18 3 -27 19 3 -27 20 3 -27 
[...]
POINT_DATA 9261
FIELD FieldData 8
U 3 9261 double
0 0 0 0 0 0 0 0 0 
0 0 0 0 0 0 0 0 0 
0 0 0 0 0 0 0 0 0 
0 0 0 0 0 0 0 0 0 
0 0 0 0 0 0 0 0 0 
0 0 0 0 0 0 0 0 0 
0 0 0 0 0 0 0 0 0 
0 0 0 0 0 0 0 0 0 
0 0 0 0 0 0 0 0 0 
0 0 0 0 0 0 0 0 0 
0 0 0 0 0 0 0 0 0 
0 0 0 0 0 0 0 0 0 
0 0 0 0 0 0 0 0 0 
0 0 0 0 0 0 0 0 0 
0 0 0 0 0 0 0 0 0 
0 0 0 0 0 0 0 0 0 
0 0 0 0 0 0 0 0 0 
0 0 0 0 0 0 0 0 0 
0 0 0 0 0 0 0 0 0 
0 0 0 0 0 0 0 0 0 
0 0 0 0 0 0 0 0 0 
0 0 0 0 0 0 0 0 0 
0 0 0 0 0 0 0 0 0 
0 0 0 0 0 0 0 0 0 
0 0 0 0 0 0 0 0 0 
0 0 0 0 0 0 0 0 0 
0 0 0 0 0 0 0 0 0 
0 0 0 0 0 0 0 0 0 
0 0 0 0 0 0 0 0 0 
0 0 0 0 0 0 0 0 0 
0 0 0 0 0 0 0 0 0 
0 0 0 0 0 0 0 0 0 
0 0 0 0 0 0 0 0 0 
0 0 0 0 0 0 0 0 0 
0 0 0 0 0 0 0 0 0 
0 0 0 0 0 0 0 0 0 
0 0 0 0 0 0 0 0 0 
0 0 0 0 0 0 0 0 0 
0 0 0 0 0 0 0 0 0 
0 0 0 0 0 0 0 0 0 
0 0 0 0 0 0 0 0 0 
0 0 0 0 0 0 0 0 0 
0 0 0 0 0 0 0 0 0 
0 0 0 0 0 0 0 0 0 
0 0 0 0 0 0 0 0 0 
0 0 0 0 0 0 0 0 0 
0 0 0 0 0 0 0 0 0 
0 0 0 0 0 0 0 0 0 
0 0 0 0 0 0 0 0 0 
0 0 0 0 0 0 0 0 0 
0 0 0 0 0 0 0 0 0 
0 0 0 0 0 0 0 0 0 
0 0 0 0 0 0 0 0 0 
0 0 0 0 0 0 0 0 0 
0 0 0 0 0 0 0 0 0 
0 0 0 0 0 0 0 0 0 
0 0 0 0 0 0 0 0 0 
0 0 0 0 0 0 0 0 0 
0 0 0 0 0 0 0 0 0 
0 0 0 0 0 0 0 0 0 
0 0 0 0 0 0 0 0 0 
0 0 0 0 0 0 0 0 0 
0 0 0 0 0 0 0 0 0 
0 0 0 0 0 0 0 0 0 
0 0 0 0 0 0 0 0 0 
0 0 0 0 0 0 0 0 0 
0 0 0 0 0 0 0 0 0 
0 0 0 0 0 0 0 0 0 
0 0 0 0 0 0 0 0 0 
0 0 0 0 0 0 0 0 0 
0 0 0 0 0 0 0 0 0 
0 0 0 0 0 0 0 0 0 
0 0 0 0 0 0 0 0 0 
0 0 0 0 0 0 0 0 0 
0 0 0 0 0 0 0 0 0 
0 0 0 0 0 0 0 0 0 
0 0 0 0 0 0 0 0 0 
0 0 0 0 0 0 0 0 0 
0 0 0 0 0 0 0 0 0 
0 0 0 0 0 0 0 0 0 
0 0 0 0 0 0 0 0 0 
0 0 0 0 0 0 0 0 0 
0 0 0 0 0 0 0 0 0 
0 0 0 0 0 0 0 0 0 
0 0 0 0 0 0 0 0 0 
0 0 0 0 0 0 0 0 0 
0 0 0 0 0 0 0 0 0 
0 0 0 0 0 0 0 0 0 
0 0 0 0 0 0 0 0 0 
0 0 0 0 0 0 0 0 0 
0 0 0 0 0 0 0 0 0 
0 0 0 0 0 0 0 0 0 
0 0 0 0 0 0 0 0 0 
0 0 0 0 0 0 0 0 0 
0 0 0 0 0 0 0 0 0 
0 0 0 0 0 0 0 0 0 
0 0 0 0 0 0 0 0 0 
0 0 0 0 0 0 0 0 0 
0 0 0 0 0 0 0 0 0 
0 0 0 0 0 0 0 0 0 
0 0 0 0 0 0 0 0 0 
0 0 0 0 0 0 0 0 0 
0 0 0 0 0 0 0 0 0 
0 0 0 0 0 0 0 0 0 
0 0 0 0 0 0 0 0 0 
0 0 0 0 0 0 0 0 0 
0 0 0 0 0 0 0 0 0 
0 0 0 0 0 0 0 0 0 
0 0 0 0 0 0 0 0 0 
0 0 0 0 0 0 0 0 0 
0 0 0 0 0 0 0 0 0 
0 0 0 0 0 0 0 0 0 
0 0 0 0 0 0 0 0 0 
0 0 0 0 0 0 0 0 0 
0 0 0 0 0 0 0 0 0 
0 0 0 0 0 0 0 0 0 
0 0 0 0 0 0 0 0 0 
0 0 0 0 0 0 0 0 0 
0 0 0 0 0 0 0 0 0 
0 0 0 0 0 0 0 0 0 
0 0 0 0 0 0 0 0 0 
0 0 0 0 0 0 0 0 0 
0 0 0 0 0 0 0 0 0 
0 0 0 0 0 0 0 0 0 
0 0 0 0 0 0 0 0 0 
0 0 0 0 0 0 0 0 0 
0 0 0 0 0 0 0 0 0 
0 0 0 0 0 0 0 0 0 
0 0 0 0 0 0 0 0 0 
0 0 0 0 0 0 0 0 0 
0 0 0 0 0 0 0 0 0 
0 0 0 0 0 0 0 0 0 
0 0 0 0 0 0 0 0 0 
0 0 0 0 0 0 0 0 0 
0 0 0 0 0 0 0 0 0 
0 0 0 0 0 0 0 0 0 
0 0 0 0 0 0 0 0 0 
0 0 0 0 0 0 0 0 0 
0 0 0 0 0 0 0 0 0 
0 0 0 0 0 0 0 0 0 
0 0 0 0 0 0 0 0 0 
0 0 0 0 0 0 0 0 0 
0 0 0 0 0 0 0 0 0 
0 0 0 0 0 0 0 0 0 
0 0 0 0 0 0 0 0 0 
0 0 0 0 0 0 0 0 0 
0 0 0 0 0 0 0 0 0 
0 0 0.000461432 -0.000124136 0 0.000455788 -0.000245269 0 0.000438986 
-0.000360458 0 0.000411418 -0.000466889 0 0.000373731 -0.000561937 0 0.00032682 
-0.000643233 0 0.000271809 -0.000708727 0 0.000210035 -0.000756751 0 0.000143016 
-0.000786071 0 7.24161e-05 -0.000795929 0 -7.14521e-10 -0.000786068 0 -7.24173e-05 
-0.000756746 0 -0.000143017 -0.00070872 0 -0.000210034 -0.000643225 0 -0.000271807 
-0.000561929 0 -0.000326816 -0.000466881 0 -0.000373726 -0.000360451 0 -0.000411412 
-0.000245264 0 -0.000438978 -0.000124133 0 -0.00045578 0 0 -0.000461424 
0 2.54252e-06 0.000461703 -0.000124173 2.51333e-06 0.000456056 -0.000245343 2.42601e-06 0.000439245 
-0.000360568 2.28142e-06 0.000411663 -0.000467034 2.08129e-06 0.000373956 -0.000562114 1.82856e-06 0.000327018 
-0.000643438 1.52778e-06 0.000271975 -0.000708956 1.18532e-06 0.000210164 -0.000756998 8.09479e-07 0.000143105 
-0.00078633 4.10267e-07 7.24612e-05 -0.000796191 -9.78756e-10 -8.14306e-10 -0.000786327 -4.12212e-07 -7.24625e-05 
-0.000756993 -8.11389e-07 -0.000143106 -0.000708949 -1.18718e-06 -0.000210164 -0.00064343 -1.52956e-06 -0.000271973 
-0.000562105 -1.83027e-06 -0.000327015 -0.000467026 -2.08292e-06 -0.000373951 -0.000360561 -2.28298e-06 -0.000411657 
-0.000245338 -2.42752e-06 -0.000439238 -0.00012417 -2.5148e-06 -0.000456048 0 -2.54398e-06 -0.000461695 
0 4.83663e-06 0.00046249 -0.000124281 4.78108e-06 0.000456835 -0.000245558 4.61494e-06 0.000439999 
-0.000360888 4.33984e-06 0.000412374 -0.000467454 3.95908e-06 0.000374607 -0.000562627 3.47827e-06 0.000327592 
-0.000644034 2.90608e-06 0.000272457 -0.000709622 2.25464e-06 0.00021054 -0.000757716 1.53971e-06 0.000143362 
-0.000787081 7.80365e-07 7.25918e-05 -0.000796953 -1.86286e-09 -1.10415e-09 -0.000787078 -7.84067e-07 -7.25937e-05 
-0.000757711 -1.54335e-06 -0.000143363 -0.000709615 -2.25817e-06 -0.00021054 -0.000644026 -2.90947e-06 -0.000272456 
-0.000562618 -3.48152e-06 -0.00032759 -0.000467445 -3.96218e-06 -0.000374603 -0.000360881 -4.34282e-06 -0.000412368 
-0.000245553 -4.61781e-06 -0.000439992 -0.000124278 -4.78389e-06 -0.000456827 0 -4.8394e-06 -0.000462483 
0 6.65803e-06 0.000463717 -0.000124449 6.58155e-06 0.000458048 -0.000245893 6.35277e-06 0.000441173 
-0.000361386 5.97397e-06 0.000413481 -0.000468108 5.4497e-06 0.000375621 -0.000563427 4.78774e-06 0.000328488 
-0.000644964 4.00003e-06 0.000273208 -0.00071066 3.10329e-06 0.000211125 -0.000758836 2.11923e-06 0.000143763 
-0.000788252 1.07406e-06 7.27952e-05 -0.000798142 -2.56649e-09 -1.55635e-09 -0.000788249 -1.07916e-06 -7.27981e-05 
-0.000758831 -2.12424e-06 -0.000143765 -0.000710652 -3.10815e-06 -0.000211126 -0.000644955 -4.00471e-06 -0.000273208 
-0.000563418 -4.79222e-06 -0.000328486 -0.0004681 -5.45398e-06 -0.000375618 -0.000361379 -5.97806e-06 -0.000413476 
-0.000245888 -6.35672e-06 -0.000441166 -0.000124447 -6.58541e-06 -0.000458041 0 -6.66186e-06 -0.00046371 
0 7.82845e-06 0.000465264 -0.000124662 7.73848e-06 0.000459578 -0.000246316 7.46937e-06 0.000442652 
-0.000362015 7.02383e-06 0.000414877 -0.000468934 6.40724e-06 0.0003769 -0.000564436 5.62879e-06 0.000329616 
-0.000646137 4.70254e-06 0.000274155 -0.00071197 3.6482e-06 0.000211862 -0.00076025 2.49128e-06 0.000144268 
-0.00078973 1.2626e-06 7.30515e-05 -0.000799642 -3.02076e-09 -2.12748e-09 -0.000789727 -1.26861e-06 -7.30555e-05 
-0.000760244 -2.49717e-06 -0.000144271 -0.000711962 -3.65392e-06 -0.000211864 -0.000646128 -4.70805e-06 -0.000274155 
-0.000564427 -5.63406e-06 -0.000329615 -0.000468926 -6.41228e-06 -0.000376897 -0.000362008 -7.02865e-06 -0.000414873 
-0.000246311 -7.47403e-06 -0.000442647 -0.000124659 -7.74302e-06 -0.000459572 0 -7.83295e-06 -0.000465257 
0 8.23301e-06 0.000466979 -0.000124898 8.13835e-06 0.000461275 -0.000246786 7.85521e-06 0.000444293 
-0.000362714 7.38646e-06 0.000416425 -0.000469852 6.73782e-06 0.000378318 -0.000565558 5.91899e-06 0.000330866 
-0.00064744 4.94481e-06 0.000275204 -0.000713425 3.83602e-06 0.000212679 -0.000761819 2.61947e-06 0.000144827 
-0.000791371 1.32754e-06 7.33356e-05 -0.000801307 -3.18048e-09 -2.76229e-09 -0.000791368 -1.33386e-06 -7.33408e-05 
-0.000761814 -2.62568e-06 -0.000144831 -0.000713417 -3.84204e-06 -0.000212682 -0.000647431 -4.95061e-06 -0.000275206 
-0.000565549 -5.92454e-06 -0.000330866 -0.000469843 -6.74312e-06 -0.000378316 -0.000362706 -7.39154e-06 -0.000416422 
-0.000246781 -7.86011e-06 -0.000444289 -0.000124895 -8.14313e-06 -0.000461269 0 -8.23775e-06 -0.000466973 
0 7.83166e-06 0.000468695 -0.000125135 7.74157e-06 0.000462972 -0.000247257 7.47211e-06 0.000445935 
-0.000363414 7.02605e-06 0.000417974 -0.000470772 6.40885e-06 0.000379736 -0.000566682 5.62979e-06 0.000332117 
-0.000648746 4.70303e-06 0.000276253 -0.000714882 3.64833e-06 0.000213496 -0.000763392 2.49123e-06 0.000145386 
-0.000793015 1.26253e-06 7.36196e-05 -0.000802976 -3.02888e-09 -3.39889e-09 -0.000793012 -1.26855e-06 -7.36261e-05 
-0.000763387 -2.49714e-06 -0.000145392 -0.000714875 -3.65407e-06 -0.0002135 -0.000648737 -4.70856e-06 -0.000276256 
-0.000566673 -5.63508e-06 -0.000332118 -0.000470763 -6.4139e-06 -0.000379735 -0.000363406 -7.03088e-06 -0.000417972 
-0.000247252 -7.47678e-06 -0.000445932 -0.000125132 -7.74612e-06 -0.000462968 0 -7.83618e-06 -0.00046869 
0 6.66323e-06 0.000470244 -0.000125349 6.58655e-06 0.000464505 -0.000247683 6.3572e-06 0.000447417 
-0.000364047 5.97756e-06 0.000419372 -0.000471603 5.4523e-06 0.000381015 -0.000567698 4.78937e-06 0.000333246 
-0.000649926 4.00082e-06 0.0002772 -0.0007162 3.10351e-06 0.000214233 -0.000764814 2.11916e-06 0.000145891 
-0.000794502 1.07394e-06 7.38757e-05 -0.000804484 -2.57963e-09 -3.97472e-09 -0.000794498 -1.07907e-06 -7.38834e-05 
-0.000764808 -2.12419e-06 -0.000145898 -0.000716192 -3.10839e-06 -0.000214238 -0.000649917 -4.00552e-06 -0.000277204 
-0.000567688 -4.79387e-06 -0.000333248 -0.000471594 -5.4566e-06 -0.000381016 -0.000364039 -5.98167e-06 -0.00041937 
-0.000247678 -6.36117e-06 -0.000447414 -0.000125346 -6.59043e-06 -0.000464501 0 -6.66708e-06 -0.00047024 
0 4.84182e-06 0.000471474 -0.000125519 4.78608e-06 0.000465721 -0.000248022 4.61938e-06 0.000448594 
-0.000364551 4.34343e-06 0.000420481 -0.000472265 3.96168e-06 0.000382031 -0.000568506 3.47989e-06 0.000334142 
-0.000650865 2.90687e-06 0.000277951 -0.000717248 2.25485e-06 0.000214817 -0.000765944 1.53964e-06 0.000146291 
-0.000795683 7.80252e-07 7.4079e-05 -0.000805683 -1.876e-09 -4.43274e-09 -0.00079568 -7.8398e-07 -7.40876e-05 
-0.000765938 -1.5433e-06 -0.000146299 -0.00071724 -2.2584e-06 -0.000214824 -0.000650855 -2.9103e-06 -0.000277956 
-0.000568496 -3.48316e-06 -0.000334145 -0.000472255 -3.9648e-06 -0.000382032 -0.000364543 -4.34642e-06 -0.00042048 
-0.000248016 -4.62226e-06 -0.000448592 -0.000125516 -4.7889e-06 -0.000465718 0 -4.84462e-06 -0.000471471 
0 2.54573e-06 0.000472264 -0.000125629 2.51642e-06 0.000466503 -0.00024824 2.42875e-06 0.000449349 
-0.000364874 2.28364e-06 0.000421194 -0.00047269 2.0829e-06 0.000382684 -0.000569025 1.82956e-06 0.000334717 
-0.000651468 1.52827e-06 0.000278434 -0.000717921 1.18545e-06 0.000215193 -0.00076667 8.09439e-07 0.000146548 
-0.000796442 4.10194e-07 7.42095e-05 -0.000806453 -9.86878e-10 -4.72729e-09 -0.000796439 -4.12156e-07 -7.42186e-05 
-0.000766664 -8.11364e-07 -0.000146557 -0.000717913 -1.18732e-06 -0.0002152 -0.000651458 -1.53007e-06 -0.000278439 
-0.000569015 -1.83128e-06 -0.00033472 -0.00047268 -2.08454e-06 -0.000382685 -0.000364866 -2.28521e-06 -0.000421193 
-0.000248234 -2.43027e-06 -0.000449348 -0.000125626 -2.5179e-06 -0.0004665 0 -2.54721e-06 -0.000472261 
0 -9.53291e-17 0.000472536 -0.000125666 -9.50415e-17 0.000466772 -0.000248315 -9.48523e-17 0.00044961 
-0.000364986 -9.42479e-17 0.000421439 -0.000472836 -9.35131e-17 0.000382908 -0.000569204 -9.25008e-17 0.000334915 
-0.000651676 -9.14717e-17 0.0002786 -0.000718153 -9.02966e-17 0.000215322 -0.00076692 -8.89767e-17 0.000146637 
-0.000796704 -8.76557e-17 7.42544e-05 -0.000806719 -8.6197e-17 -4.82887e-09 -0.000796701 -8.47e-17 -7.42638e-05 
-0.000766914 -8.34903e-17 -0.000146645 -0.000718145 -8.2074e-17 -0.000215329 -0.000651666 -8.06047e-17 -0.000278605 
-0.000569194 -7.98827e-17 -0.000334919 -0.000472827 -7.91342e-17 -0.00038291 -0.000364978 -7.84805e-17 -0.000421439 
-0.000248309 -7.792e-17 -0.000449608 -0.000125663 -7.76167e-17 -0.00046677 0 -7.7388e-17 -0.000472533 
0 -2.54573e-06 0.000472264 -0.000125629 -2.51642e-06 0.000466503 -0.00024824 -2.42875e-06 0.000449349 
-0.000364874 -2.28364e-06 0.000421194 -0.00047269 -2.0829e-06 0.000382684 -0.000569025 -1.82956e-06 0.000334717 
-0.000651468 -1.52827e-06 0.000278434 -0.000717921 -1.18545e-06 0.000215193 -0.00076667 -8.09439e-07 0.000146548 
-0.000796442 -4.10194e-07 7.42095e-05 -0.000806453 9.86878e-10 -4.72729e-09 -0.000796439 4.12156e-07 -7.42186e-05 
-0.000766664 8.11364e-07 -0.000146557 -0.000717913 1.18732e-06 -0.0002152 -0.000651458 1.53007e-06 -0.000278439 
-0.000569015 1.83128e-06 -0.00033472 -0.00047268 2.08454e-06 -0.000382685 -0.000364866 2.28521e-06 -0.000421193 
-0.000248234 2.43027e-06 -0.000449348 -0.000125626 2.5179e-06 -0.0004665 0 2.54721e-06 -0.000472261 
0 -4.84182e-06 0.000471474 -0.000125519 -4.78608e-06 0.000465721 -0.000248022 -4.61938e-06 0.000448594 
-0.000364551 -4.34343e-06 0.000420481 -0.000472265 -3.96168e-06 0.000382031 -0.000568506 -3.47989e-06 0.000334142 
-0.000650865 -2.90687e-06 0.000277951 -0.000717248 -2.25485e-06 0.000214817 -0.000765944 -1.53964e-06 0.000146291 
-0.000795683 -7.80252e-07 7.4079e-05 -0.000805683 1.876e-09 -4.43274e-09 -0.00079568 7.8398e-07 -7.40876e-05 
-0.000765938 1.5433e-06 -0.000146299 -0.00071724 2.2584e-06 -0.000214824 -0.000650855 2.9103e-06 -0.000277956 
-0.000568496 3.48316e-06 -0.000334145 -0.000472255 3.9648e-06 -0.000382032 -0.000364543 4.34642e-06 -0.00042048 
-0.000248016 4.62226e-06 -0.000448592 -0.000125516 4.7889e-06 -0.000465718 0 4.84462e-06 -0.000471471 
0 -6.66323e-06 0.000470244 -0.000125349 -6.58655e-06 0.000464505 -0.000247683 -6.3572e-06 0.000447417 
-0.000364047 -5.97756e-06 0.000419372 -0.000471603 -5.4523e-06 0.000381015 -0.000567698 -4.78937e-06 0.000333246 
-0.000649926 -4.00082e-06 0.0002772 -0.0007162 -3.10351e-06 0.000214233 -0.000764814 -2.11916e-06 0.000145891 
-0.000794502 -1.07394e-06 7.38757e-05 -0.000804484 2.57963e-09 -3.97472e-09 -0.000794498 1.07907e-06 -7.38834e-05 
-0.000764808 2.12419e-06 -0.000145898 -0.000716192 3.10839e-06 -0.000214238 -0.000649917 4.00552e-06 -0.000277204 
-0.000567688 4.79387e-06 -0.000333248 -0.000471594 5.4566e-06 -0.000381016 -0.000364039 5.98167e-06 -0.00041937 
-0.000247678 6.36117e-06 -0.000447414 -0.000125346 6.59043e-06 -0.000464501 0 6.66708e-06 -0.00047024 
0 -7.83166e-06 0.000468695 -0.000125135 -7.74157e-06 0.000462972 -0.000247257 -7.47211e-06 0.000445935 
-0.000363414 -7.02605e-06 0.000417974 -0.000470772 -6.40885e-06 0.000379736 -0.000566682 -5.62979e-06 0.000332117 
-0.000648746 -4.70303e-06 0.000276253 -0.000714882 -3.64833e-06 0.000213496 -0.000763392 -2.49123e-06 0.000145386 
-0.000793015 -1.26253e-06 7.36196e-05 -0.000802976 3.02888e-09 -3.39889e-09 -0.000793012 1.26855e-06 -7.36261e-05 
-0.000763387 2.49714e-06 -0.000145392 -0.000714875 3.65407e-06 -0.0002135 -0.000648737 4.70856e-06 -0.000276256 
-0.000566673 5.63508e-06 -0.000332118 -0.000470763 6.4139e-06 -0.000379735 -0.000363406 7.03088e-06 -0.000417972 
-0.000247252 7.47678e-06 -0.000445932 -0.000125132 7.74612e-06 -0.000462968 0 7.83618e-06 -0.00046869 
0 -8.23301e-06 0.000466979 -0.000124898 -8.13835e-06 0.000461275 -0.000246786 -7.85521e-06 0.000444293 
-0.000362714 -7.38646e-06 0.000416425 -0.000469852 -6.73782e-06 0.000378318 -0.000565558 -5.91899e-06 0.000330866 
-0.00064744 -4.94481e-06 0.000275204 -0.000713425 -3.83602e-06 0.000212679 -0.000761819 -2.61947e-06 0.000144827 
-0.000791371 -1.32754e-06 7.33356e-05 -0.000801307 3.18048e-09 -2.76229e-09 -0.000791368 1.33386e-06 -7.33408e-05 
-0.000761814 2.62568e-06 -0.000144831 -0.000713417 3.84204e-06 -0.000212682 -0.000647431 4.95061e-06 -0.000275206 
-0.000565549 5.92454e-06 -0.000330866 -0.000469843 6.74312e-06 -0.000378316 -0.000362706 7.39154e-06 -0.000416422 
-0.000246781 7.86011e-06 -0.000444289 -0.000124895 8.14313e-06 -0.000461269 0 8.23775e-06 -0.000466973 
0 -7.82845e-06 0.000465264 -0.000124662 -7.73848e-06 0.000459578 -0.000246316 -7.46937e-06 0.000442652 
-0.000362015 -7.02383e-06 0.000414877 -0.000468934 -6.40724e-06 0.0003769 -0.000564436 -5.62879e-06 0.000329616 
-0.000646137 -4.70254e-06 0.000274155 -0.00071197 -3.6482e-06 0.000211862 -0.00076025 -2.49128e-06 0.000144268 
-0.00078973 -1.2626e-06 7.30515e-05 -0.000799642 3.02076e-09 -2.12748e-09 -0.000789727 1.26861e-06 -7.30555e-05 
-0.000760244 2.49717e-06 -0.000144271 -0.000711962 3.65392e-06 -0.000211864 -0.000646128 4.70805e-06 -0.000274155 
-0.000564427 5.63406e-06 -0.000329615 -0.000468926 6.41228e-06 -0.000376897 -0.000362008 7.02865e-06 -0.000414873 
-0.000246311 7.47403e-06 -0.000442647 -0.000124659 7.74302e-06 -0.000459572 0 7.83295e-06 -0.000465257 
0 -6.65803e-06 0.000463717 -0.000124449 -6.58155e-06 0.000458048 -0.000245893 -6.35277e-06 0.000441173 
-0.000361386 -5.97397e-06 0.000413481 -0.000468108 -5.4497e-06 0.000375621 -0.000563427 -4.78774e-06 0.000328488 
-0.000644964 -4.00003e-06 0.000273208 -0.00071066 -3.10329e-06 0.000211125 -0.000758836 -2.11923e-06 0.000143763 
-0.000788252 -1.07406e-06 7.27952e-05 -0.000798142 2.56649e-09 -1.55635e-09 -0.000788249 1.07916e-06 -7.27981e-05 
-0.000758831 2.12424e-06 -0.000143765 -0.000710652 3.10815e-06 -0.000211126 -0.000644955 4.00471e-06 -0.000273208 
-0.000563418 4.79222e-06 -0.000328486 -0.0004681 5.45398e-06 -0.000375618 -0.000361379 5.97806e-06 -0.000413476 
-0.000245888 6.35672e-06 -0.000441166 -0.000124447 6.58541e-06 -0.000458041 0 6.66186e-06 -0.00046371 
0 -4.83663e-06 0.00046249 -0.000124281 -4.78108e-06 0.000456835 -0.000245558 -4.61494e-06 0.000439999 
-0.000360888 -4.33984e-06 0.000412374 -0.000467454 -3.95908e-06 0.000374607 -0.000562627 -3.47827e-06 0.000327592 
-0.000644034 -2.90608e-06 0.000272457 -0.000709622 -2.25464e-06 0.00021054 -0.000757716 -1.53971e-06 0.000143362 
-0.000787081 -7.80365e-07 7.25918e-05 -0.000796953 1.86286e-09 -1.10415e-09 -0.000787078 7.84067e-07 -7.25937e-05 
-0.000757711 1.54335e-06 -0.000143363 -0.000709615 2.25817e-06 -0.00021054 -0.000644026 2.90947e-06 -0.000272456 
-0.000562618 3.48152e-06 -0.00032759 -0.000467445 3.96218e-06 -0.000374603 -0.000360881 4.34282e-06 -0.000412368 
-0.000245553 4.61781e-06 -0.000439992 -0.000124278 4.78389e-06 -0.000456827 0 4.8394e-06 -0.000462483 
0 -2.54252e-06 0.000461703 -0.000124173 -2.51333e-06 0.000456056 -0.000245343 -2.42601e-06 0.000439245 
-0.000360568 -2.28142e-06 0.000411663 -0.000467034 -2.08129e-06 0.000373956 -0.000562114 -1.82856e-06 0.000327018 
-0.000643438 -1.52778e-06 0.000271975 -0.000708956 -1.18532e-06 0.000210164 -0.000756998 -8.09479e-07 0.000143105 
-0.00078633 -4.10267e-07 7.24612e-05 -0.000796191 9.78756e-10 -8.14306e-10 -0.000786327 4.12212e-07 -7.24625e-05 
-0.000756993 8.11389e-07 -0.000143106 -0.000708949 1.18718e-06 -0.000210164 -0.00064343 1.52956e-06 -0.000271973 
-0.000562105 1.83027e-06 -0.000327015 -0.000467026 2.08292e-06 -0.000373951 -0.000360561 2.28298e-06 -0.000411657 
-0.000245338 2.42752e-06 -0.000439238 -0.00012417 2.5148e-06 -0.000456048 0 2.54398e-06 -0.000461695 
0 0 0.000461432 -0.000124136 0 0.000455788 -0.000245269 0 0.000438986 
-0.000360458 0 0.000411418 -0.000466889 0 0.000373731 -0.000561937 0 0.00032682 
-0.000643233 0 0.000271809 -0.000708727 0 0.000210035 -0.000756751 0 0.000143016 
-0.000786071 0 7.24161e-05 -0.000795929 0 -7.14522e-10 -0.000786068 0 -7.24173e-05 
-0.000756746 0 -0.000143017 -0.00070872 0 -0.000210034 -0.000643225 0 -0.000271807 
-0.000561929 0 -0.000326816 -0.000466881 0 -0.000373726 -0.000360451 0 -0.000411412 
-0.000245264 0 -0.000438978 -0.000124133 0 -0.00045578 0 0 -0.000461424 
0 0 0.00104728 -0.000222816 0 0.00103449 -0.000440256 0 0.000996422 
-0.000647051 0 0.000933942 -0.000838153 0 0.000848501 -0.00100885 0 0.000742102 
-0.00115488 0 0.000617279 -0.00127255 0 0.000477053 -0.00135885 0 0.000324867 
-0.00141154 0 0.000164507 -0.00142926 0 -1.77103e-09 -0.00141153 0 -0.00016451 
-0.00135884 0 -0.000324868 -0.00127254 0 -0.000477051 -0.00115486 0 -0.000617274 
-0.00100883 0 -0.000742093 -0.000838139 0 -0.000848488 -0.000647038 0 -0.000933926 
-0.000440246 0 -0.000996403 -0.000222811 0 -0.00103447 0 0 -0.00104726 
0 4.85467e-06 0.00104801 -0.000222888 4.80009e-06 0.00103522 -0.000440399 4.63654e-06 0.000997125 
-0.000647265 4.36493e-06 0.000934607 -0.000838437 3.98745e-06 0.000849112 -0.0010092 3.50855e-06 0.000742642 
-0.00115529 2.93585e-06 0.000617734 -0.001273 2.28087e-06 0.000477408 -0.00135934 1.55935e-06 0.000325111 
-0.00141205 7.90901e-07 0.000164631 -0.00142978 -1.81657e-09 -2.03263e-09 -0.00141205 -7.94509e-07 -0.000164634 
-0.00135933 -1.56288e-06 -0.000325112 -0.00127299 -2.2843e-06 -0.000477407 -0.00115527 -2.93913e-06 -0.000617729 
-0.00100918 -3.51168e-06 -0.000742634 -0.000838422 -3.99042e-06 -0.0008491 -0.000647253 -4.36776e-06 -0.000934592 