# vtk DataFile Version 5.1
vtk output
ASCII
DATASET UNSTRUCTURED_GRID
POINTS 9261 float
0 0 -30 1 0 -30 2 0 -30 
3 0 -30 4 0 -30 5 0 -30 
6 0 -30 7 0 -30 8 0 -30 
9 0 -30 10 0 -30 11 0 -30 
12 0 -30 13 0 -30 14 0 -30 
15 0 -30 16 0 -30 17 0 -30 
18 0 -30 19 0 -30 20 0 -30 
0 1 -30 1 1 -30 2 1 -30 
3 1 -30 4 1 -30 5 1 -30 
6 1 -30 7 1 -30 8 1 -30 
9 1 -30 10 1 -30 11 1 -30 
12 1 -30 13 1 -30 14 1 -30 
15 1 -30 16 1 -30 17 1 -30 
18 1 -30 19 1 -30 20 1 -30 
0 2 -30 1 2 -30 2 2 -30 
3 2 -30 4 2 -30 5 2 -30 
6 2 -30 7 2 -30 8 2 -30 
9 2 -30 10 2 -30 11 2 -30 
12 2 -30 13 2 -30 14 2 -30 
15 2 -30 16 2 -30 17 2 -30 
18 2 -30 19 2 -30 20 2 -30 
0 3 -30 1 3 -30 2 3 -30 
3 3 -30 4 3 -30 5 3 -30 
6 3 -30 7 3 -30 8 3 -30 
9 3 -30 10 3 -30 11 3 -30 
12 3 -30 13 3 -30 14 3 -30 
15 3 -30 16 3 -30 17 3 -30 
18 3 -30 19 3 -30 20 3 -30 
0 4 -30 1 4 -30 2 4 -30 
3 4 -30 4 4 -30 5 4 -30 
6 4 -30 7 4 -30 8 4 -30 
9 4 -30 10 4 -30 11 4 -30 
12 4 -30 13 4 -30 14 4 -30 
15 4 -30 16 4 -30 17 4 -30 
18 4 -30 19 4 -30 20 4 -30 
0 5 -30 1 5 -30 2 5 -30 
3 5 -30 4 5 -30 5 5 -30 
6 5 -30 7 5 -30 8 5 -30 
9 5 -30 10 5 -30 11 5 -30 
12 5 -30 13 5 -30 14 5 -30 
15 5 -30 16 5 -30 17 5 -30 
18 5 -30 19 5 -30 20 5 -30 
0 6 -30 1 6 -30 2 6 -30 
3 6 -30 4 6 -30 5 6 -30 
6 6 -30 7 6 -30 8 6 -30 
9 6 -30 10 6 -30 11 6 -30 
12 6 -30 13 6 -30 14 6 -30 
15 6 -30 16 6 -30 17 6 -30 
18 6 -30 19 6 -30 20 6 -30 
0 7 -30 1 7 -30 2 7 -30 
3 7 -30 4 7 -30 5 7 -30 
6 7 -30 7 7 -30 8 7 -30 
9 7 -30 10 7 -30 11 7 -30 
12 7 -30 13 7 -30 14 7 -30 
15 7 -30 16 7 -30 17 7 -30 
18 7 -30 19 7 -30 20 7 -30 
0 8 -30 1 8 -30 2 8 -30 
3 8 -30 4 8 -30 5 8 -30 
6 8 -30 7 8 -30 8 8 -30 
9 8 -30 10 8 -30 11 8 -30 
12 8 -30 13 8 -30 14 8 -30 
15 8 -30 16 8 -30 17 8 -30 
18 8 -30 19 8 -30 20 8 -30 
0 9 -30 1 9 -30 2 9 -30 
3 9 -30 4 9 -30 5 9 -30 
6 9 -30 7 9 -30 8 9 -30 
9 9 -30 10 9 -30 11 9 -30 
12 9 -30 13 9 -30 14 9 -30 
15 9 -30 16 9 -30 17 9 -30 
18 9 -30 19 9 -30 20 9 -30 
0 10 -30 1 10 -30 2 10 -30 
3 10 -30 4 10 -30 5 10 -30 
6 10 -30 7 10 -30 8 10 -30 
9 10 -30 10 10 -30 11 10 -30 
12 10 -30 13 10 -30 14 10 -30 
15 10 -30 16 10 -30 17 10 -30 
18 10 -30 19 10 -30 20 10 -30 
0 11 -30 1 11 -30 2 11 -30 
3 11 -30 4 11 -30 5 11 -30 
6 11 -30 7 11 -30 8 11 -30 
9 11 -30 10 11 -30 11 11 -30 
12 11 -30 13 11 -30 14 11 -30 
15 11 -30 16 11 -30 17 11 -30 
18 11 -30 19 11 -30 20 11 -30 
0 12 -30 1 12 -30 2 12 -30 
3 12 -30 4 12 -30 5 12 -30 
6 12 -30 7 12 -30 8 12 -30 
9 12 -30 10 12 -30 11 12 -30 
12 12 -30 13 12 -30 14 12 -30 
15 12 -30 16 12 -30 17 12 -30 
18 12 -30 19 12 -30 20 12 -30 
0 13 -30 1 13 -30 2 13 -30 
3 13 -30 4 13 -30 5 13 -30 
6 13 -30 7 13 -30 8 13 -30 
9 13 -30 10 13 -30 11 13 -30 
12 13 -30 13 13 -30 14 13 -30 
15 13 -30 16 13 -30 17 13 -30 
18 13 -30 19 13 -30 20 13 -30 
0 14 -30 1 14 -30 2 14 -30 
3 14 -30 4 14 -30 5 14 -30 
6 14 -30 7 14 -30 8 14 -30 
9 14 -30 10 14 -30 11 14 -30 
12 14 -30 13 14 -30 14 14 -30 
15 14 -30 16 14 -30 17 14 -30 
18 14 -30 19 14 -30 20 14 -30 
0 15 -30 1 15 -30 2 15 -30 
3 15 -30 4 15 -30 5 15 -30 
6 15 -30 7 15 -30 8 15 -30 
9 15 -30 10 15 -30 11 15 -30 
12 15 -30 13 15 -30 14 15 -30 
15 15 -30 16 15 -30 17 15 -30 
18 15 -30 19 15 -30 20 15 -30 
0 16 -30 1 16 -30 2 16 -30 
3 16 -30 4 16 -30 5 16 -30 
6 16 -30 7 16 -30 8 16 -30 
9 16 -30 10 16 -30 11 16 -30 
12 16 -30 13 16 -30 14 16 -30 
15 16 -30 16 16 -30 17 16 -30 
18 16 -30 19 16 -30 20 16 -30 
0 17 -30 1 17 -30 2 17 -30 
3 17 -30 4 17 -30 5 17 -30 
6 17 -30 7 17 -30 8 17 -30 
9 17 -30 10 17 -30 11 17 -30 
12 17 -30 13 17 -30 14 17 -30 
15 17 -30 16 17 -30 17 17 -30 
18 17 -30 19 17 -30 20 17 -30 
0 18 -30 1 18 -30 2 18 -30 
3 18 -30 4 18 -30 5 18 -30 
6 18 -30 7 18 -30 8 18 -30 
9 18 -30 10 18 -30 11 18 -30 
12 18 -30 13 18 -30 14 18 -30 
15 18 -30 16 18 -30 17 18 -30 
18 18 -30 19 18 -30 20 18 -30 
0 19 -30 1 19 -30 2 19 -30 
3 19 -30 4 19 -30 5 19 -30 
6 19 -30 7 19 -30 8 19 -30 
9 19 -30 10 19 -30 11 19 -30 
12 19 -30 13 19 -30 14 19 -30 
15 19 -30 16 19 -30 17 19 -30 
18 19 -30 19 19 -30 20 19 -30 
0 20 -30 1 20 -30 2 20 -30 
3 20 -30 4 20 -30 5 20 -30 
6 20 -30 7 20 -30 8 20 -30 
9 20 -30 10 20 -30 11 20 -30 
12 20 -30 13 20 -30 14 20 -30 
15 20 -30 16 20 -30 17 20 -30 
18 20 -30 19 20 -30 20 20 -30 
0 0 -28.5 1 0 -28.5 2 0 -28.5 
3 0 -28.5 4 0 -28.5 5 0 -28.5 
6 0 -28.5 7 0 -28.5 8 0 -28.5 
9 0 -28.5 10 0 -28.5 11 0 -28.5 
12 0 -28.5 13 0 -28.5 14 0 -28.5 
15 0 -28.5 16 0 -28.5 17 0 -28.5 
18 0 -28.5 19 0 -28.5 20 0 -28.5 
0 1 -28.5 1 1 -28.5 2 1 -28.5 
3 1 -28.5 4 1 -28.5 5 1 -28.5 
6 1 -28.5 7 1 -28.5 8 1 -28.5 
9 1 -28.5 10 1 -28.5 11 1 -28.5 
12 1 -28.5 13 1 -28.5 14 1 -28.5 
15 1 -28.5 16 1 -28.5 17 1 -28.5 
18 1 -28.5 19 1 -28.5 20 1 -28.5 
0 2 -28.5 1 2 -28.5 2 2 -28.5 
3 2 -28.5 4 2 -28.5 5 2 -28.5 
6 2 -28.5 7 2 -28.5 8 2 -28.5 
9 2 -28.5 10 2 -28.5 11 2 -28.5 
12 2 -28.5 13 2 -28.5 14 2 -28.5 
15 2 -28.5 16 2 -28.5 17 2 -28.5 
18 2 -28.5 19 2 -28.5 20 2 -28.5 
0 3 -28.5 1 3 -28.5 2 3 -28.5 
3 3 -28.5 4 3 -28.5 5 3 -28.5 
6 3 -28.5 7 3 -28.5 8 3 -28.5 
9 3 -28.5 10 3 -28.5 11 3 -28.5 
12 3 -28.5 13 3 -28.5 14 3 -28.5 
15 3 -28.5 16 3 -28.5 17 3 -28.5 
18 3 -28.5 19 3 -28.5 20 3 -28.5 
0 4 -28.5 1 4 -28.5 2 4 -28.5 
3 4 -28.5 4 4 -28.5 5 4 -28.5 
6 4 -28.5 7 4 -28.5 8 4 -28.5 
9 4 -28.5 10 4 -28.5 11 4 -28.5 
12 4 -28.5 13 4 -28.5 14 4 -28.5 
15 4 -28.5 16 4 -28.5 17 4 -28.5 
18 4 -28.5 19 4 -28.5 20 4 -28.5 
0 5 -28.5 1 5 -28.5 2 5 -28.5 
3 5 -28.5 4 5 -28.5 5 5 -28.5 
6 5 -28.5 7 5 -28.5 8 5 -28.5 
9 5 -28.5 10 5 -28.5 11 5 -28.5 
12 5 -28.5 13 5 -28.5 14 5 -28.5 
15 5 -28.5 16 5 -28.5 17 5 -28.5 
18 5 -28.5 19 5 -28.5 20 5 -28.5 
0 6 -28.5 1 6 -28.5 2 6 -28.5 
3 6 -28.5 4 6 -28.5 5 6 -28.5 
6 6 -28.5 7 6 -28.5 8 6 -28.5 
9 6 -28.5 10 6 -28.5 11 6 -28.5 
12 6 -28.5 13 6 -28.5 14 6 -28.5 
15 6 -28.5 16 6 -28.5 17 6 -28.5 
18 6 -28.5 19 6 -28.5 20 6 -28.5 
0 7 -28.5 1 7 -28.5 2 7 -28.5 
3 7 -28.5 4 7 -28.5 5 7 -28.5 
6 7 -28.5 7 7 -28.5 8 7 -28.5 
9 7 -28.5 10 7 -28.5 11 7 -28.5 
12 7 -28.5 13 7 -28.5 14 7 -28.5 
15 7 -28.5 16 7 -28.5 17 7 -28.5 
18 7 -28.5 19 7 -28.5 20 7 -28.5 
0 8 -28.5 1 8 -28.5 2 8 -28.5 
3 8 -28.5 4 8 -28.5 5 8 -28.5 
6 8 -28.5 7 8 -28.5 8 8 -28.5 
9 8 -28.5 10 8 -28.5 11 8 -28.5 
12 8 -28.5 13 8 -28.5 14 8 -28.5 
15 8 -28.5 16 8 -28.5 17 8 -28.5 
18 8 -28.5 19 8 -28.5 20 8 -28.5 
0 9 -28.5 1 9 -28.5 2 9 -28.5 
3 9 -28.5 4 9 -28.5 5 9 -28.5 
6 9 -28.5 7 9 -28.5 8 9 -28.5 
9 9 -28.5 10 9 -28.5 11 9 -28.5 
12 9 -28.5 13 9 -28.5 14 9 -28.5 
15 9 -28.5 16 9 -28.5 17 9 -28.5 
18 9 -28.5 19 9 -28.5 20 9 -28.5 
0 10 -28.5 1 10 -28.5 2 10 -28.5 
3 10 -28.5 4 10 -28.5 5 10 -28.5 
6 10 -28.5 7 10 -28.5 8 10 -28.5 
9 10 -28.5 10 10 -28.5 11 10 -28.5 
12 10 -28.5 13 10 -28.5 14 10 -28.5 
15 10 -28.5 16 10 -28.5 17 10 -28.5 
18 10 -28.5 19 10 -28.5 20 10 -28.5 
0 11 -28.5 1 11 -28.5 2 11 -28.5 
3 11 -28.5 4 11 -28.5 5 11 -28.5 
6 11 -28.5 7 11 -28.5 8 11 -28.5 
9 11 -28.5 10 11 -28.5 11 11 -28.5 
12 11 -28.5 13 11 -28.5 14 11 -28.5 
15 11 -28.5 16 11 -28.5 17 11 -28.5 
18 11 -28.5 19 11 -28.5 20 11 -28.5 
0 12 -28.5 1 12 -28.5 2 12 -28.5 
3 12 -28.5 4 12 -28.5 5 12 -28.5 
6 12 -28.5 7 12 -28.5 8 12 -28.5 
9 12 -28.5 10 12 -28.5 11 12 -28.5 
12 12 -28.5 13 12 -28.5 14 12 -28.5 
15 12 -28.5 16 12 -28.5 17 12 -28.5 
18 12 -28.5 19 12 -28.5 20 12 -28.5 
0 13 -28.5 1 13 -28.5 2 13 -28.5 
3 13 -28.5 4 13 -28.5 5 13 -28.5 
6 13 -28.5 7 13 -28.5 8 13 -28.5 
9 13 -28.5 10 13 -28.5 11 13 -28.5 
12 13 -28.5 13 13 -28.5 14 13 -28.5 
15 13 -28.5 16 13 -28.5 17 13 -28.5 
18 13 -28.5 19 13 -28.5 20 13 -28.5 
0 14 -28.5 1 14 -28.5 2 14 -28.5 
3 14 -28.5 4 14 -28.5 5 14 -28.5 
6 14 -28.5 7 14 -28.5 8 14 -28.5 
9 14 -28.5 10 14 -28.5 11 14 -28.5 
12 14 -28.5 13 14 -28.5 14 14 -28.5 
15 14 -28.5 16 14 -28.5 17 14 -28.5 
18 14 -28.5 19 14 -28.5 20 14 -28.5 
0 15 -28.5 1 15 -28.5 2 15 -28.5 
3 15 -28.5 4 15 -28.5 5 15 -28.5 
6 15 -28.5 7 15 -28.5 8 15 -28.5 
9 15 -28.5 10 15 -28.5 11 15 -28.5 
12 15 -28.5 13 15 -28.5 14 15 -28.5 
15 15 -28.5 16 15 -28.5 17 15 -28.5 
18 15 -28.5 19 15 -28.5 20 15 -28.5 
0 16 -28.5 1 16 -28.5 2 16 -28.5 
3 16 -28.5 4 16 -28.5 5 16 -28.5 
6 16 -28.5 7 16 -28.5 8 16 -28.5 
9 16 -28.5 10 16 -28.5 11 16 -28.5 
12 16 -28.5 13 16 -28.5 14 16 -28.5 
15 16 -28.5 16 16 -28.5 17 16 -28.5 
18 16 -28.5 19 16 -28.5 20 16 -28.5 
0 17 -28.5 1 17 -28.5 2 17 -28.5 
3 17 -28.5 4 17 -28.5 5 17 -28.5 
6 17 -28.5 7 17 -28.5 8 17 -28.5 
9 17 -28.5 10 17 -28.5 11 17 -28.5 
12 17 -28.5 13 17 -28.5 14 17 -28.5 
15 17 -28.5 16 17 -28.5 17 17 -28.5 
18 17 -28.5 19 17 -28.5 20 17 -28.5 
0 18 -28.5 1 18 -28.5 2 18 -28.5 
3 18 -28.5 4 18 -28.5 5 18 -28.5 
6 18 -28.5 7 18 -28.5 8 18 -28.5 
9 18 -28.5 10 18 -28.5 11 18 -28.5 
12 18 -28.5 13 18 -28.5 14 18 -28.5 
15 18 -28.5 16 18 -28.5 17 18 -28.5 
18 18 -28.5 19 18 -28.5 20 18 -28.5 
0 19 -28.5 1 19 -28.5 2 19 -28.5 
3 19 -28.5 4 19 -28.5 5 19 -28.5 
6 19 -28.5 7 19 -28.5 8 19 -28.5 
9 19 -28.5 10 19 -28.5 11 19 -28.5 
12 19 -28.5 13 19 -28.5 14 19 -28.5 
15 19 -28.5 16 19 -28.5 17 19 -28.5 
18 19 -28.5 19 19 -28.5 20 19 -28.5 
0 20 -28.5 1 20 -28.5 2 20 -28.5 
3 20 -28.5 4 20 -28.5 5 20 -28.5 
6 20 -28.5 7 20 -28.5 8 20 -28.5 
9 20 -28.5 10 20 -28.5 11 20 -28.5 
12 20 -28.5 13 20 -28.5 14 20 -28.5 
15 20 -28.5 16 20 -28.5 17 20 -28.5 
18 20 -28.5 19 20 -28.5 20 20 -28.5 
0 0 -27 1 0 -27 2 0 -27 
3 0 -27 4 0 -27 5 0 -27 
6 0 -27 7 0 -27 8 0 -27 
9 0 -27 10 0 -27 11 0 -27 
12 0 -27 13 0 -27 14 0 -27 
15 0 -27 16 0 -27 17 0 -27 
18 0 -27 19 0 -27 20 0 -27 
0 1 -27 1 1 -27 2 1 -27 
3 1 -27 4 1 -27 5 1 -27 
6 1 -27 7 1 -27 8 1 -27 
9 1 -27 10 1 -27 11 1 -27 
12 1 -27 13 1 -27 14 1 -27 
15 1 -27 16 1 -27 17 1 -27 
18 1 -27 19 1 -27 20 1 -27 
0 2 -27 1 2 -27 2 2 -27 
3 2 -27 4 2 -27 5 2 -27 
6 2 -27 7 2 -27 8 2 -27 
9 2 -27 10 2 -27 11 2 -27 
12 2 -27 13 2 -27 14 2 -27 
15 2 -27 16 2 -27 17 2 -27 
18 2 -27 19 2 -27 20 2 -27 
0 3 -27 1 3 -27 2 3 -27 
3 3 -27 4 3 -27 5 3 -27 
6 3 -27 7 3 -27 8 3 -27 
9 3 -27 10 3 -27 11 3 -27 
12 3 -27 13 3 -27 14 3 -27 
15 3 -27 16 3 -27 17 3 -27 
18 3 -27 19 3 -27 20 3 -27 
[...]
POINT_DATA 9261
FIELD FieldData 8
U 3 9261 double
0 0 0 0 0 0 0 0 0 
0 0 0 0 0 0 0 0 0 
0 0 0 0 0 0 0 0 0 
0 0 0 0 0 0 0 0 0 
0 0 0 0 0 0 0 0 0 
0 0 0 0 0 0 0 0 0 
0 0 0 0 0 0 0 0 0 
0 0 0 0 0 0 0 0 0 
0 0 0 0 0 0 0 0 0 
0 0 0 0 0 0 0 0 0 
0 0 0 0 0 0 0 0 0 
0 0 0 0 0 0 0 0 0 
0 0 0 0 0 0 0 0 0 
0 0 0 0 0 0 0 0 0 
0 0 0 0 0 0 0 0 0 
0 0 0 0 0 0 0 0 0 
0 0 0 0 0 0 0 0 0 
0 0 0 0 0 0 0 0 0 
0 0 0 0 0 0 0 0 0 
0 0 0 0 0 0 0 0 0 
0 0 0 0 0 0 0 0 0 
0 0 0 0 0 0 0 0 0 
0 0 0 0 0 0 0 0 0 
0 0 0 0 0 0 0 0 0 
0 0 0 0 0 0 0 0 0 
0 0 0 0 0 0 0 0 0 
0 0 0 0 0 0 0 0 0 
0 0 0 0 0 0 0 0 0 
0 0 0 0 0 0 0 0 0 
0 0 0 0 0 0 0 0 0 
0 0 0 0 0 0 0 0 0 
0 0 0 0 0 0 0 0 0 
0 0 0 0 0 0 0 0 0 
0 0 0 0 0 0 0 0 0 
0 0 0 0 0 0 0 0 0 
0 0 0 0 0 0 0 0 0 
0 0 0 0 0 0 0 0 0 
0 0 0 0 0 0 0 0 0 
0 0 0 0 0 0 0 0 0 
0 0 0 0 0 0 0 0 0 
0 0 0 0 0 0 0 0 0 
0 0 0 0 0 0 0 0 0 
0 0 0 0 0 0 0 0 0 
0 0 0 0 0 0 0 0 0 
0 0 0 0 0 0 0 0 0 
0 0 0 0 0 0 0 0 0 
0 0 0 0 0 0 0 0 0 
0 0 0 0 0 0 0 0 0 
0 0 0 0 0 0 0 0 0 
0 0 0 0 0 0 0 0 0 
0 0 0 0 0 0 0 0 0 
0 0 0 0 0 0 0 0 0 
0 0 0 0 0 0 0 0 0 
0 0 0 0 0 0 0 0 0 
0 0 0 0 0 0 0 0 0 
0 0 0 0 0 0 0 0 0 
0 0 0 0 0 0 0 0 0 
0 0 0 0 0 0 0 0 0 
0 0 0 0 0 0 0 0 0 
0 0 0 0 0 0 0 0 0 
0 0 0 0 0 0 0 0 0 
0 0 0 0 0 0 0 0 0 
0 0 0 0 0 0 0 0 0 
0 0 0 0 0 0 0 0 0 
0 0 0 0 0 0 0 0 0 
0 0 0 0 0 0 0 0 0 
0 0 0 0 0 0 0 0 0 
0 0 0 0 0 0 0 0 0 
0 0 0 0 0 0 0 0 0 
0 0 0 0 0 0 0 0 0 
0 0 0 0 0 0 0 0 0 
0 0 0 0 0 0 0 0 0 
0 0 0 0 0 0 0 0 0 
0 0 0 0 0 0 0 0 0 
0 0 0 0 0 0 0 0 0 
0 0 0 0 0 0 0 0 0 
0 0 0 0 0 0 0 0 0 
0 0 0 0 0 0 0 0 0 
0 0 0 0 0 0 0 0 0 
0 0 0 0 0 0 0 0 0 
0 0 0 0 0 0 0 0 0 
0 0 0 0 0 0 0 0 0 
0 0 0 0 0 0 0 0 0 
0 0 0 0 0 0 0 0 0 
0 0 0 0 0 0 0 0 0 
0 0 0 0 0 0 0 0 0 
0 0 0 0 0 0 0 0 0 
0 0 0 0 0 0 0 0 0 
0 0 0 0 0 0 0 0 0 
0 0 0 0 0 0 0 0 0 
0 0 0 0 0 0 0 0 0 
0 0 0 0 0 0 0 0 0 
0 0 0 0 0 0 0 0 0 
0 0 0 0 0 0 0 0 0 
0 0 0 0 0 0 0 0 0 
0 0 0 0 0 0 0 0 0 
0 0 0 0 0 0 0 0 0 
0 0 0 0 0 0 0 0 0 
0 0 0 0 0 0 0 0 0 
0 0 0 0 0 0 0 0 0 
0 0 0 0 0 0 0 0 0 
0 0 0 0 0 0 0 0 0 
0 0 0 0 0 0 0 0 0 
0 0 0 0 0 0 0 0 0 
0 0 0 0 0 0 0 0 0 
0 0 0 0 0 0 0 0 0 
0 0 0 0 0 0 0 0 0 
0 0 0 0 0 0 0 0 0 
0 0 0 0 0 0 0 0 0 
0 0 0 0 0 0 0 0 0 
0 0 0 0 0 0 0 0 0 
0 0 0 0 0 0 0 0 0 
0 0 0 0 0 0 0 0 0 
0 0 0 0 0 0 0 0 0 
0 0 0 0 0 0 0 0 0 
0 0 0 0 0 0 0 0 0 
0 0 0 0 0 0 0 0 0 
0 0 0 0 0 0 0 0 0 
0 0 0 0 0 0 0 0 0 
0 0 0 0 0 0 0 0 0 
0 0 0 0 0 0 0 0 0 
0 0 0 0 0 0 0 0 0 
0 0 0 0 0 0 0 0 0 
0 0 0 0 0 0 0 0 0 
0 0 0 0 0 0 0 0 0 
0 0 0 0 0 0 0 0 0 
0 0 0 0 0 0 0 0 0 
0 0 0 0 0 0 0 0 0 
0 0 0 0 0 0 0 0 0 
0 0 0 0 0 0 0 0 0 
0 0 0 0 0 0 0 0 0 
0 0 0 0 0 0 0 0 0 
0 0 0 0 0 0 0 0 0 
0 0 0 0 0 0 0 0 0 
0 0 0 0 0 0 0 0 0 
0 0 0 0 0 0 0 0 0 
0 0 0 0 0 0 0 0 0 
0 0 0 0 0 0 0 0 0 
0 0 0 0 0 0 0 0 0 
0 0 0 0 0 0 0 0 0 
0 0 0 0 0 0 0 0 0 
0 0 0 0 0 0 0 0 0 
0 0 0 0 0 0 0 0 0 
0 0 0 0 0 0 0 0 0 
0 0 0 0 0 0 0 0 0 
0 0 0 0 0 0 0 0 0 
0 0 0 0 0 0 0 0 0 
0 0 0.000922864 -0.000248272 0 0.000911575 -0.000490538 0 0.000877971 
-0.000720917 0 0.000822836 -0.000933779 0 0.000747463 -0.00112387 0 0.00065364 
-0.00128647 0 0.000543618 -0.00141745 0 0.00042007 -0.0015135 0 0.000286033 
-0.00157214 0 0.000144832 -0.00159186 0 -1.42904e-09 -0.00157214 0 -0.000144835 
-0.00151349 0 -0.000286034 -0.00141744 0 -0.000420069 -0.00128645 0 -0.000543614 
-0.00112386 0 -0.000653633 -0.000933763 0 -0.000747453 -0.000720903 0 -0.000822823 
-0.000490528 0 -0.000877957 -0.000248266 0 -0.000911559 0 0 -0.000922847 
0 5.08504e-06 0.000923406 -0.000248346 5.02666e-06 0.000912112 -0.000490686 4.85202e-06 0.000878491 
-0.000721137 4.56284e-06 0.000823326 -0.000934068 4.16257e-06 0.000747911 -0.00112423 3.65712e-06 0.000654036 
-0.00128688 3.05555e-06 0.00054395 -0.00141791 2.37064e-06 0.000420329 -0.001514 1.61896e-06 0.00028621 
-0.00157266 8.20534e-07 0.000144922 -0.00159238 -1.95751e-09 -1.62861e-09 -0.00157265 -8.24424e-07 -0.000144925 
-0.00151399 -1.62278e-06 -0.000286211 -0.0014179 -2.37435e-06 -0.000420328 -0.00128686 -3.05912e-06 -0.000543947 
-0.00112421 -3.66053e-06 -0.000654029 -0.000934052 -4.16584e-06 -0.000747902 -0.000721123 -4.56597e-06 -0.000823313 
-0.000490676 -4.85504e-06 -0.000878476 -0.000248341 -5.02961e-06 -0.000912096 0 -5.08796e-06 -0.00092339 
0 9.67325e-06 0.000924981 -0.000248562 9.56217e-06 0.000913669 -0.000491115 9.22989e-06 0.000879997 
-0.000721775 8.67969e-06 0.000824747 -0.000934907 7.91815e-06 0.000749214 -0.00112525 6.95655e-06 0.000655185 
-0.00128807 5.81215e-06 0.000544915 -0.00141924 4.50927e-06 0.00042108 -0.00151543 3.07943e-06 0.000286724 
-0.00157416 1.56073e-06 0.000145184 -0.00159391 -3.72572e-09 -2.2083e-09 -0.00157416 -1.56813e-06 -0.000145187 
-0.00151542 -3.0867e-06 -0.000286727 -0.00141923 -4.51633e-06 -0.00042108 -0.00128805 -5.81895e-06 -0.000544912 
-0.00112524 -6.96305e-06 -0.000655179 -0.000934891 -7.92436e-06 -0.000749205 -0.000721761 -8.68563e-06 -0.000824736 
-0.000491105 -9.23562e-06 -0.000879984 -0.000248557 -9.56777e-06 -0.000913655 0 -9.67881e-06 -0.000924965 
0 1.33161e-05 0.000927434 -0.000248899 1.31631e-05 0.000916096 -0.000491786 1.27055e-05 0.000882345 
-0.000722772 1.19479e-05 0.000826962 -0.000936216 1.08994e-05 0.000751243 -0.00112685 9.57549e-06 0.000656975 
-0.00128993 8.00006e-06 0.000546417 -0.00142132 6.20657e-06 0.00042225 -0.00151767 4.23845e-06 0.000287526 
-0.0015765 2.14812e-06 0.00014559 -0.00159628 -5.13297e-09 -3.1127e-09 -0.0015765 -2.15832e-06 -0.000145596 
-0.00151766 -4.24847e-06 -0.00028753 -0.0014213 -6.2163e-06 -0.000422252 -0.00128991 -8.00942e-06 -0.000546416 
-0.00112684 -9.58445e-06 -0.000656971 -0.000936199 -1.0908e-05 -0.000751235 -0.000722758 -1.19561e-05 -0.000826952 
-0.000491775 -1.27134e-05 -0.000882333 -0.000248893 -1.31708e-05 -0.000916083 0 -1.33237e-05 -0.00092742 
0 1.56569e-05 0.000930527 -0.000249324 1.5477e-05 0.000919156 -0.000492632 1.49387e-05 0.000885305 
-0.00072403 1.40477e-05 0.000829754 -0.000937868 1.28145e-05 0.0007538 -0.00112887 1.12576e-05 0.000659231 
-0.00129227 9.40508e-06 0.00054831 -0.00142394 7.29639e-06 0.000423724 -0.0015205 4.98256e-06 0.000288535 
-0.00157946 2.52521e-06 0.000146103 -0.00159928 -6.04151e-09 -4.25495e-09 -0.00157945 -2.53722e-06 -0.000146111 
-0.00152049 -4.99435e-06 -0.000288542 -0.00142392 -7.30784e-06 -0.000423728 -0.00129226 -9.4161e-06 -0.000548311 
-0.00112885 -1.12681e-05 -0.000659229 -0.000937851 -1.28246e-05 -0.000753794 -0.000724015 -1.40573e-05 -0.000829746 
-0.000492621 -1.49481e-05 -0.000885294 -0.000249318 -1.5486e-05 -0.000919144 0 -1.56659e-05 -0.000930514 
0 1.6466e-05 0.000933958 -0.000249796 1.62767e-05 0.00092255 -0.000493572 1.57104e-05 0.000888587 
-0.000725427 1.47729e-05 0.00083285 -0.000939704 1.34756e-05 0.000756635 -0.00113112 1.1838e-05 0.000661733 
-0.00129488 9.88961e-06 0.000550408 -0.00142685 7.67203e-06 0.000425358 -0.00152364 5.23894e-06 0.000289654 
-0.00158274 2.65509e-06 0.000146671 -0.00160261 -6.36097e-09 -5.52457e-09 -0.00158274 -2.66773e-06 -0.000146682 
-0.00152363 -5.25135e-06 -0.000289663 -0.00142683 -7.68408e-06 -0.000425364 -0.00129486 -9.90121e-06 -0.000550411 
-0.0011311 -1.18491e-05 -0.000661733 -0.000939686 -1.34862e-05 -0.000756632 -0.000725412 -1.47831e-05 -0.000832844 
-0.000493561 -1.57202e-05 -0.000888578 -0.000249791 -1.62863e-05 -0.000922539 0 -1.64755e-05 -0.000933946 
0 1.56633e-05 0.00093739 -0.00025027 1.54831e-05 0.000925945 -0.000494515 1.49442e-05 0.000891871 
-0.000726828 1.40521e-05 0.000835948 -0.000941544 1.28177e-05 0.000759471 -0.00113336 1.12596e-05 0.000664235 
-0.00129749 9.40607e-06 0.000552507 -0.00142976 7.29666e-06 0.000426991 -0.00152678 4.98247e-06 0.000290773 
-0.00158603 2.52507e-06 0.000147239 -0.00160595 -6.05776e-09 -6.79779e-09 -0.00158602 -2.53711e-06 -0.000147252 
-0.00152677 -4.99429e-06 -0.000290784 -0.00142975 -7.30814e-06 -0.000427 -0.00129747 -9.41711e-06 -0.000552512 
-0.00113335 -1.12702e-05 -0.000664237 -0.000941526 -1.28278e-05 -0.00075947 -0.000726813 -1.40618e-05 -0.000835943 
-0.000494503 -1.49536e-05 -0.000891863 -0.000250264 -1.54922e-05 -0.000925936 0 -1.56724e-05 -0.000937381 
0 1.33265e-05 0.000940488 -0.000250698 1.31731e-05 0.00092901 -0.000495367 1.27144e-05 0.000894834 
-0.000728094 1.19551e-05 0.000838743 -0.000943207 1.09046e-05 0.000762031 -0.0011354 9.57873e-06 0.000666492 
-0.00129985 8.00164e-06 0.0005544 -0.0014324 6.20701e-06 0.000428465 -0.00152963 4.23832e-06 0.000291782 
-0.001589 2.14789e-06 0.000147751 -0.00160897 -5.15926e-09 -7.94945e-09 -0.001589 -2.15814e-06 -0.000147767 
-0.00152962 -4.24838e-06 -0.000291795 -0.00143238 -6.21679e-06 -0.000428476 -0.00129983 -8.01105e-06 -0.000554407 
-0.00113538 -9.58774e-06 -0.000666496 -0.000943188 -1.09132e-05 -0.000762031 -0.000728079 -1.19633e-05 -0.00083874 
-0.000495355 -1.27223e-05 -0.000894829 -0.000250692 -1.31809e-05 -0.000929002 0 -1.33342e-05 -0.00094048 
0 9.68365e-06 0.000942948 -0.000251038 9.57217e-06 0.000931443 -0.000496044 9.23875e-06 0.000897188 
-0.000729101 8.68686e-06 0.000840963 -0.000944529 7.92336e-06 0.000764062 -0.00113701 6.95978e-06 0.000668284 
-0.00130173 5.81375e-06 0.000555902 -0.0014345 4.5097e-06 0.000429635 -0.00153189 3.07928e-06 0.000292583 
-0.00159137 1.5605e-06 0.000148158 -0.00161137 -3.75201e-09 -8.86548e-09 -0.00159136 -1.56796e-06 -0.000148175 
-0.00153188 -3.08661e-06 -0.000292598 -0.00143448 -4.51681e-06 -0.000429647 -0.00130171 -5.82059e-06 -0.000555912 
-0.00113699 -6.96633e-06 -0.000668289 -0.00094451 -7.92961e-06 -0.000764064 -0.000729085 -8.69285e-06 -0.000840961 
-0.000496033 -9.24453e-06 -0.000897183 -0.000251032 -9.57781e-06 -0.000931437 0 -9.68924e-06 -0.000942941 
0 5.09147e-06 0.000944528 -0.000251257 5.03284e-06 0.000933006 -0.00049648 4.8575e-06 0.000898699 
-0.000729748 4.56728e-06 0.000842388 -0.000945379 4.16579e-06 0.000765367 -0.00113805 3.65912e-06 0.000669434 
-0.00130294 3.05654e-06 0.000556867 -0.00143584 2.37091e-06 0.000430386 -0.00153334 1.61888e-06 0.000293097 
-0.00159288 8.20388e-07 0.000148419 -0.00161291 -1.97376e-09 -9.45457e-09 -0.00159288 -8.24311e-07 -0.000148437 
-0.00153333 -1.62273e-06 -0.000293113 -0.00143583 -2.37465e-06 -0.000430399 -0.00130292 -3.06014e-06 -0.000556877 
-0.00113803 -3.66256e-06 -0.000669441 -0.00094536 -4.16908e-06 -0.00076537 -0.000729732 -4.57043e-06 -0.000842387 
-0.000496468 -4.86054e-06 -0.000898695 -0.000251251 -5.03581e-06 -0.000933 0 -5.09441e-06 -0.000944522 
0 -1.90658e-16 0.000945073 -0.000251333 -1.90083e-16 0.000933544 -0.00049663 -1.89705e-16 0.00089922 
-0.000729972 -1.88496e-16 0.000842879 -0.000945672 -1.87026e-16 0.000765817 -0.00113841 -1.85002e-16 0.000669831 
-0.00130335 -1.82943e-16 0.0005572 -0.00143631 -1.80593e-16 0.000430644 -0.00153384 -1.77953e-16 0.000293274 
-0.00159341 -1.75311e-16 0.000148509 -0.00161344 -1.72394e-16 -9.65774e-09 -0.0015934 -1.694e-16 -0.000148528 
-0.00153383 -1.66981e-16 -0.000293291 -0.00143629 -1.64148e-16 -0.000430658 -0.00130333 -1.61209e-16 -0.00055721 
-0.00113839 -1.59765e-16 -0.000669838 -0.000945653 -1.58268e-16 -0.00076582 -0.000729955 -1.56961e-16 -0.000842878 
-0.000496618 -1.5584e-16 -0.000899216 -0.000251327 -1.55233e-16 -0.000933539 0 -1.54776e-16 -0.000945067 
0 -5.09147e-06 0.000944528 -0.000251257 -5.03284e-06 0.000933006 -0.00049648 -4.8575e-06 0.000898699 
-0.000729748 -4.56728e-06 0.000842388 -0.000945379 -4.16579e-06 0.000765367 -0.00113805 -3.65912e-06 0.000669434 
-0.00130294 -3.05654e-06 0.000556867 -0.00143584 -2.37091e-06 0.000430386 -0.00153334 -1.61888e-06 0.000293097 
-0.00159288 -8.20388e-07 0.000148419 -0.00161291 1.97376e-09 -9.45457e-09 -0.00159288 8.24311e-07 -0.000148437 
-0.00153333 1.62273e-06 -0.000293113 -0.00143583 2.37465e-06 -0.000430399 -0.00130292 3.06014e-06 -0.000556877 
-0.00113803 3.66256e-06 -0.000669441 -0.00094536 4.16908e-06 -0.00076537 -0.000729732 4.57043e-06 -0.000842387 
-0.000496468 4.86054e-06 -0.000898695 -0.000251251 5.03581e-06 -0.000933 0 5.09441e-06 -0.000944522 
0 -9.68365e-06 0.000942948 -0.000251038 -9.57217e-06 0.000931443 -0.000496044 -9.23875e-06 0.000897188 
-0.000729101 -8.68686e-06 0.000840963 -0.000944529 -7.92336e-06 0.000764062 -0.00113701 -6.95978e-06 0.000668284 
-0.00130173 -5.81375e-06 0.000555902 -0.0014345 -4.5097e-06 0.000429635 -0.00153189 -3.07928e-06 0.000292583 
-0.00159137 -1.5605e-06 0.000148158 -0.00161137 3.75201e-09 -8.86548e-09 -0.00159136 1.56796e-06 -0.000148175 
-0.00153188 3.08661e-06 -0.000292598 -0.00143448 4.51681e-06 -0.000429647 -0.00130171 5.82059e-06 -0.000555912 
-0.00113699 6.96633e-06 -0.000668289 -0.00094451 7.92961e-06 -0.000764064 -0.000729085 8.69285e-06 -0.000840961 
-0.000496033 9.24453e-06 -0.000897183 -0.000251032 9.57781e-06 -0.000931437 0 9.68924e-06 -0.000942941 
0 -1.33265e-05 0.000940488 -0.000250698 -1.31731e-05 0.00092901 -0.000495367 -1.27144e-05 0.000894834 
-0.000728094 -1.19551e-05 0.000838743 -0.000943207 -1.09046e-05 0.000762031 -0.0011354 -9.57873e-06 0.000666492 
-0.00129985 -8.00164e-06 0.0005544 -0.0014324 -6.20701e-06 0.000428465 -0.00152963 -4.23832e-06 0.000291782 
-0.001589 -2.14789e-06 0.000147751 -0.00160897 5.15926e-09 -7.94945e-09 -0.001589 2.15814e-06 -0.000147767 
-0.00152962 4.24838e-06 -0.000291795 -0.00143238 6.21679e-06 -0.000428476 -0.00129983 8.01105e-06 -0.000554407 
-0.00113538 9.58774e-06 -0.000666496 -0.000943188 1.09132e-05 -0.000762031 -0.000728079 1.19633e-05 -0.00083874 
-0.000495355 1.27223e-05 -0.000894829 -0.000250692 1.31809e-05 -0.000929002 0 1.33342e-05 -0.00094048 
0 -1.56633e-05 0.00093739 -0.00025027 -1.54831e-05 0.000925945 -0.000494515 -1.49442e-05 0.000891871 
-0.000726828 -1.40521e-05 0.000835948 -0.000941544 -1.28177e-05 0.000759471 -0.00113336 -1.12596e-05 0.000664235 
-0.00129749 -9.40607e-06 0.000552507 -0.00142976 -7.29666e-06 0.000426991 -0.00152678 -4.98247e-06 0.000290773 
-0.00158603 -2.52507e-06 0.000147239 -0.00160595 6.05776e-09 -6.79779e-09 -0.00158602 2.53711e-06 -0.000147252 
-0.00152677 4.99429e-06 -0.000290784 -0.00142975 7.30814e-06 -0.000427 -0.00129747 9.41711e-06 -0.000552512 
-0.00113335 1.12702e-05 -0.000664237 -0.000941526 1.28278e-05 -0.00075947 -0.000726813 1.40618e-05 -0.000835943 
-0.000494503 1.49536e-05 -0.000891863 -0.000250264 1.54922e-05 -0.000925936 0 1.56724e-05 -0.000937381 
0 -1.6466e-05 0.000933958 -0.000249796 -1.62767e-05 0.00092255 -0.000493572 -1.57104e-05 0.000888587 
-0.000725427 -1.47729e-05 0.00083285 -0.000939704 -1.34756e-05 0.000756635 -0.00113112 -1.1838e-05 0.000661733 
-0.00129488 -9.88961e-06 0.000550408 -0.00142685 -7.67203e-06 0.000425358 -0.00152364 -5.23894e-06 0.000289654 
-0.00158274 -2.65509e-06 0.000146671 -0.00160261 6.36097e-09 -5.52457e-09 -0.00158274 2.66773e-06 -0.000146682 
-0.00152363 5.25135e-06 -0.000289663 -0.00142683 7.68408e-06 -0.000425364 -0.00129486 9.90121e-06 -0.000550411 
-0.0011311 1.18491e-05 -0.000661733 -0.000939686 1.34862e-05 -0.000756632 -0.000725412 1.47831e-05 -0.000832844 
-0.000493561 1.57202e-05 -0.000888578 -0.000249791 1.62863e-05 -0.000922539 0 1.64755e-05 -0.000933946 
0 -1.56569e-05 0.000930527 -0.000249324 -1.5477e-05 0.000919156 -0.000492632 -1.49387e-05 0.000885305 
-0.00072403 -1.40477e-05 0.000829754 -0.000937868 -1.28145e-05 0.0007538 -0.00112887 -1.12576e-05 0.000659231 
-0.00129227 -9.40508e-06 0.00054831 -0.00142394 -7.29639e-06 0.000423724 -0.0015205 -4.98256e-06 0.000288535 
-0.00157946 -2.52521e-06 0.000146103 -0.00159928 6.04151e-09 -4.25495e-09 -0.00157945 2.53722e-06 -0.000146111 
-0.00152049 4.99435e-06 -0.000288542 -0.00142392 7.30784e-06 -0.000423728 -0.00129226 9.4161e-06 -0.000548311 
-0.00112885 1.12681e-05 -0.000659229 -0.000937851 1.28246e-05 -0.000753794 -0.000724015 1.40573e-05 -0.000829746 
-0.000492621 1.49481e-05 -0.000885294 -0.000249318 1.5486e-05 -0.000919144 0 1.56659e-05 -0.000930514 
0 -1.33161e-05 0.000927434 -0.000248899 -1.31631e-05 0.000916096 -0.000491786 -1.27055e-05 0.000882345 
-0.000722772 -1.19479e-05 0.000826962 -0.000936216 -1.08994e-05 0.000751243 -0.00112685 -9.57549e-06 0.000656975 
-0.00128993 -8.00006e-06 0.000546417 -0.00142132 -6.20657e-06 0.00042225 -0.00151767 -4.23845e-06 0.000287526 
-0.0015765 -2.14812e-06 0.00014559 -0.00159628 5.13297e-09 -3.1127e-09 -0.0015765 2.15832e-06 -0.000145596 
-0.00151766 4.24847e-06 -0.00028753 -0.0014213 6.2163e-06 -0.000422252 -0.00128991 8.00942e-06 -0.000546416 
-0.00112684 9.58445e-06 -0.000656971 -0.000936199 1.0908e-05 -0.000751235 -0.000722758 1.19561e-05 -0.000826952 
-0.000491775 1.27134e-05 -0.000882333 -0.000248893 1.31708e-05 -0.000916083 0 1.33237e-05 -0.00092742 
0 -9.67325e-06 0.000924981 -0.000248562 -9.56217e-06 0.000913669 -0.000491115 -9.22989e-06 0.000879997 
-0.000721775 -8.67969e-06 0.000824747 -0.000934907 -7.91815e-06 0.000749214 -0.00112525 -6.95655e-06 0.000655185 
-0.00128807 -5.81215e-06 0.000544915 -0.00141924 -4.50927e-06 0.00042108 -0.00151543 -3.07943e-06 0.000286724 
-0.00157416 -1.56073e-06 0.000145184 -0.00159391 3.72572e-09 -2.2083e-09 -0.00157416 1.56813e-06 -0.000145187 
-0.00151542 3.0867e-06 -0.000286727 -0.00141923 4.51633e-06 -0.00042108 -0.00128805 5.81895e-06 -0.000544912 
-0.00112524 6.96305e-06 -0.000655179 -0.000934891 7.92436e-06 -0.000749205 -0.000721761 8.68563e-06 -0.000824736 
-0.000491105 9.23562e-06 -0.000879984 -0.000248557 9.56777e-06 -0.000913655 0 9.67881e-06 -0.000924965 
0 -5.08504e-06 0.000923406 -0.000248346 -5.02666e-06 0.000912112 -0.000490686 -4.85202e-06 0.000878491 
-0.000721137 -4.56284e-06 0.000823326 -0.000934068 -4.16257e-06 0.000747911 -0.00112423 -3.65712e-06 0.000654036 
-0.00128688 -3.05555e-06 0.00054395 -0.00141791 -2.37064e-06 0.000420329 -0.001514 -1.61896e-06 0.00028621 
-0.00157266 -8.20534e-07 0.000144922 -0.00159238 1.95751e-09 -1.62861e-09 -0.00157265 8.24424e-07 -0.000144925 
-0.00151399 1.62278e-06 -0.000286211 -0.0014179 2.37435e-06 -0.000420328 -0.00128686 3.05912e-06 -0.000543947 
-0.00112421 3.66053e-06 -0.000654029 -0.000934052 4.16584e-06 -0.000747902 -0.000721123 4.56597e-06 -0.000823313 
-0.000490676 4.85504e-06 -0.000878476 -0.000248341 5.02961e-06 -0.000912096 0 5.08796e-06 -0.00092339 
0 0 0.000922864 -0.000248272 0 0.000911575 -0.000490538 0 0.000877971 
-0.000720917 0 0.000822836 -0.000933779 0 0.000747463 -0.00112387 0 0.00065364 
-0.00128647 0 0.000543618 -0.00141745 0 0.00042007 -0.0015135 0 0.000286033 
-0.00157214 0 0.000144832 -0.00159186 0 -1.42904e-09 -0.00157214 0 -0.000144835 
-0.00151349 0 -0.000286034 -0.00141744 0 -0.000420069 -0.00128645 0 -0.000543614 
-0.00112386 0 -0.000653633 -0.000933763 0 -0.000747453 -0.000720903 0 -0.000822823 
-0.000490528 0 -0.000877957 -0.000248266 0 -0.000911559 0 0 -0.000922847 
0 0 0.00209456 -0.000445632 0 0.00206898 -0.000880511 0 0.00199284 
-0.0012941 0 0.00186788 -0.00167631 0 0.001697 -0.0020177 0 0.0014842 
-0.00230976 0 0.00123456 -0.0025451 0 0.000954105 -0.00271769 0 0.000649734 
-0.00282308 0 0.000329014 -0.00285851 0 -3.54207e-09 -0.00282307 0 -0.00032902 
-0.00271767 0 -0.000649736 -0.00254507 0 -0.000954102 -0.00230973 0 -0.00123455 
-0.00201767 0 -0.00148419 -0.00167628 0 -0.00169698 -0.00129408 0 -0.00186785 
-0.000880493 0 -0.00199281 -0.000445623 0 -0.00206894 0 0 -0.00209452 
0 9.70935e-06 0.00209602 -0.000445776 9.60018e-06 0.00207043 -0.000880799 9.27309e-06 0.00199425 
-0.00129453 8.72986e-06 0.00186921 -0.00167687 7.9749e-06 0.00169822 -0.0020184 7.0171e-06 0.00148528 
-0.00231057 5.8717e-06 0.00123547 -0.00254601 4.56175e-06 0.000954816 -0.00271868 3.11869e-06 0.000650221 
-0.00282411 1.5818e-06 0.000329262 -0.00285956 -3.63313e-09 -4.06525e-09 -0.0028241 -1.58902e-06 -0.000329269 
-0.00271866 -3.12577e-06 -0.000650225 -0.00254598 -4.56859e-06 -0.000954814 -0.00231054 -5.87826e-06 -0.00123546 
-0.00201837 -7.02335e-06 -0.00148527 -0.00167684 -7.98084e-06 -0.0016982 -0.00129451 -8.73551e-06 -0.00186918 
-0.000880781 -9.27852e-06 -0.00199421 -0.000445767 -9.60546e-06 -0.00207039 0 -9.71459e-06 -0.00209598 
0 1.84712e-05 0.00210028 -0.000446196 1.82635e-05 0.00207465 -0.000881635 1.76411e-05 0.00199833 
-0.00129578 1.66075e-05 0.00187308 -0.00167852 1.51711e-05 0.00170177 -0.00202042 1.33488e-05 0.00148842 