# vtk DataFile Version 5.1
vtk output
ASCII
DATASET UNSTRUCTURED_GRID
POINTS 9261 float
0 0 -30 1 0 -30 2 0 -30 
3 0 -30 4 0 -30 5 0 -30 
6 0 -30 7 0 -30 8 0 -30 
9 0 -30 10 0 -30 11 0 -30 
12 0 -30 13 0 -30 14 0 -30 
15 0 -30 16 0 -30 17 0 -30 
18 0 -30 19 0 -30 20 0 -30 
0 1 -30 1 1 -30 2 1 -30 
3 1 -30 4 1 -30 5 1 -30 
6 1 -30 7 1 -30 8 1 -30 
9 1 -30 10 1 -30 11 1 -30 
12 1 -30 13 1 -30 14 1 -30 
15 1 -30 16 1 -30 17 1 -30 
18 1 -30 19 1 -30 20 1 -30 
0 2 -30 1 2 -30 2 2 -30 
3 2 -30 4 2 -30 5 2 -30 
6 2 -30 7 2 -30 8 2 -30 
9 2 -30 10 2 -30 11 2 -30 
12 2 -30 13 2 -30 14 2 -30 
15 2 -30 16 2 -30 17 2 -30 
18 2 -30 19 2 -30 20 2 -30 
0 3 -30 1 3 -30 2 3 -30 
3 3 -30 4 3 -30 5 3 -30 
6 3 -30 7 3 -30 8 3 -30 
9 3 -30 10 3 -30 11 3 -30 
12 3 -30 13 3 -30 14 3 -30 
15 3 -30 16 3 -30 17 3 -30 
18 3 -30 19 3 -30 20 3 -30 
0 4 -30 1 4 -30 2 4 -30 
3 4 -30 4 4 -30 5 4 -30 
6 4 -30 7 4 -30 8 4 -30 
9 4 -30 10 4 -30 11 4 -30 
12 4 -30 13 4 -30 14 4 -30 
15 4 -30 16 4 -30 17 4 -30 
18 4 -30 19 4 -30 20 4 -30 
0 5 -30 1 5 -30 2 5 -30 
3 5 -30 4 5 -30 5 5 -30 
6 5 -30 7 5 -30 8 5 -30 
9 5 -30 10 5 -30 11 5 -30 
12 5 -30 13 5 -30 14 5 -30 
15 5 -30 16 5 -30 17 5 -30 
18 5 -30 19 5 -30 20 5 -30 
0 6 -30 1 6 -30 2 6 -30 
3 6 -30 4 6 -30 5 6 -30 
6 6 -30 7 6 -30 8 6 -30 
9 6 -30 10 6 -30 11 6 -30 
12 6 -30 13 6 -30 14 6 -30 
15 6 -30 16 6 -30 17 6 -30 
18 6 -30 19 6 -30 20 6 -30 
0 7 -30 1 7 -30 2 7 -30 
3 7 -30 4 7 -30 5 7 -30 
6 7 -30 7 7 -30 8 7 -30 
9 7 -30 10 7 -30 11 7 -30 
12 7 -30 13 7 -30 14 7 -30 
15 7 -30 16 7 -30 17 7 -30 
18 7 -30 19 7 -30 20 7 -30 
0 8 -30 1 8 -30 2 8 -30 
3 8 -30 4 8 -30 5 8 -30 
6 8 -30 7 8 -30 8 8 -30 
9 8 -30 10 8 -30 11 8 -30 
12 8 -30 13 8 -30 14 8 -30 
15 8 -30 16 8 -30 17 8 -30 
18 8 -30 19 8 -30 20 8 -30 
0 9 -30 1 9 -30 2 9 -30 
3 9 -30 4 9 -30 5 9 -30 
6 9 -30 7 9 -30 8 9 -30 
9 9 -30 10 9 -30 11 9 -30 
12 9 -30 13 9 -30 14 9 -30 
15 9 -30 16 9 -30 17 9 -30 
18 9 -30 19 9 -30 20 9 -30 
0 10 -30 1 10 -30 2 10 -30 
3 10 -30 4 10 -30 5 10 -30 
6 10 -30 7 10 -30 8 10 -30 
9 10 -30 10 10 -30 11 10 -30 
12 10 -30 13 10 -30 14 10 -30 
15 10 -30 16 10 -30 17 10 -30 
18 10 -30 19 10 -30 20 10 -30 
0 11 -30 1 11 -30 2 11 -30 
3 11 -30 4 11 -30 5 11 -30 
6 11 -30 7 11 -30 8 11 -30 
9 11 -30 10 11 -30 11 11 -30 
12 11 -30 13 11 -30 14 11 -30 
15 11 -30 16 11 -30 17 11 -30 
18 11 -30 19 11 -30 20 11 -30 
0 12 -30 1 12 -30 2 12 -30 
3 12 -30 4 12 -30 5 12 -30 
6 12 -30 7 12 -30 8 12 -30 
9 12 -30 10 12 -30 11 12 -30 
12 12 -30 13 12 -30 14 12 -30 
15 12 -30 16 12 -30 17 12 -30 
18 12 -30 19 12 -30 20 12 -30 
0 13 -30 1 13 -30 2 13 -30 
3 13 -30 4 13 -30 5 13 -30 
6 13 -30 7 13 -30 8 13 -30 
9 13 -30 10 13 -30 11 13 -30 
12 13 -30 13 13 -30 14 13 -30 
15 13 -30 16 13 -30 17 13 -30 
18 13 -30 19 13 -30 20 13 -30 
0 14 -30 1 14 -30 2 14 -30 
3 14 -30 4 14 -30 5 14 -30 
6 14 -30 7 14 -30 8 14 -30 
9 14 -30 10 14 -30 11 14 -30 
12 14 -30 13 14 -30 14 14 -30 
15 14 -30 16 14 -30 17 14 -30 
18 14 -30 19 14 -30 20 14 -30 
0 15 -30 1 15 -30 2 15 -30 
3 15 -30 4 15 -30 5 15 -30 
6 15 -30 7 15 -30 8 15 -30 
9 15 -30 10 15 -30 11 15 -30 
12 15 -30 13 15 -30 14 15 -30 
15 15 -30 16 15 -30 17 15 -30 
18 15 -30 19 15 -30 20 15 -30 
0 16 -30 1 16 -30 2 16 -30 
3 16 -30 4 16 -30 5 16 -30 
6 16 -30 7 16 -30 8 16 -30 
9 16 -30 10 16 -30 11 16 -30 
12 16 -30 13 16 -30 14 16 -30 
15 16 -30 16 16 -30 17 16 -30 
18 16 -30 19 16 -30 20 16 -30 
0 17 -30 1 17 -30 2 17 -30 
3 17 -30 4 17 -30 5 17 -30 
6 17 -30 7 17 -30 8 17 -30 
9 17 -30 10 17 -30 11 17 -30 
12 17 -30 13 17 -30 14 17 -30 
15 17 -30 16 17 -30 17 17 -30 
18 17 -30 19 17 -30 20 17 -30 
0 18 -30 1 18 -30 2 18 -30 
3 18 -30 4 18 -30 5 18 -30 
6 18 -30 7 18 -30 8 18 -30 
9 18 -30 10 18 -30 11 18 -30 
12 18 -30 13 18 -30 14 18 -30 
15 18 -30 16 18 -30 17 18 -30 
18 18 -30 19 18 -30 20 18 -30 
0 19 -30 1 19 -30 2 19 -30 
3 19 -30 4 19 -30 5 19 -30 
6 19 -30 7 19 -30 8 19 -30 
9 19 -30 10 19 -30 11 19 -30 
12 19 -30 13 19 -30 14 19 -30 
15 19 -30 16 19 -30 17 19 -30 
18 19 -30 19 19 -30 20 19 -30 
0 20 -30 1 20 -30 2 20 -30 
3 20 -30 4 20 -30 5 20 -30 
6 20 -30 7 20 -30 8 20 -30 
9 20 -30 10 20 -30 11 20 -30 
12 20 -30 13 20 -30 14 20 -30 
15 20 -30 16 20 -30 17 20 -30 
18 20 -30 19 20 -30 20 20 -30 
0 0 -28.5 1 0 -28.5 2 0 -28.5 
3 0 -28.5 4 0 -28.5 5 0 -28.5 
6 0 -28.5 7 0 -28.5 8 0 -28.5 
9 0 -28.5 10 0 -28.5 11 0 -28.5 
12 0 -28.5 13 0 -28.5 14 0 -28.5 
15 0 -28.5 16 0 -28.5 17 0 -28.5 
18 0 -28.5 19 0 -28.5 20 0 -28.5 
0 1 -28.5 1 1 -28.5 2 1 -28.5 
3 1 -28.5 4 1 -28.5 5 1 -28.5 
6 1 -28.5 7 1 -28.5 8 1 -28.5 
9 1 -28.5 10 1 -28.5 11 1 -28.5 
12 1 -28.5 13 1 -28.5 14 1 -28.5 
15 1 -28.5 16 1 -28.5 17 1 -28.5 
18 1 -28.5 19 1 -28.5 20 1 -28.5 
0 2 -28.5 1 2 -28.5 2 2 -28.5 
3 2 -28.5 4 2 -28.5 5 2 -28.5 
6 2 -28.5 7 2 -28.5 8 2 -28.5 
9 2 -28.5 10 2 -28.5 11 2 -28.5 
12 2 -28.5 13 2 -28.5 14 2 -28.5 
15 2 -28.5 16 2 -28.5 17 2 -28.5 
18 2 -28.5 19 2 -28.5 20 2 -28.5 
0 3 -28.5 1 3 -28.5 2 3 -28.5 
3 3 -28.5 4 3 -28.5 5 3 -28.5 
6 3 -28.5 7 3 -28.5 8 3 -28.5 
9 3 -28.5 10 3 -28.5 11 3 -28.5 
12 3 -28.5 13 3 -28.5 14 3 -28.5 
15 3 -28.5 16 3 -28.5 17 3 -28.5 
18 3 -28.5 19 3 -28.5 20 3 -28.5 
0 4 -28.5 1 4 -28.5 2 4 -28.5 
3 4 -28.5 4 4 -28.5 5 4 -28.5 
6 4 -28.5 7 4 -28.5 8 4 -28.5 
9 4 -28.5 10 4 -28.5 11 4 -28.5 
12 4 -28.5 13 4 -28.5 14 4 -28.5 
15 4 -28.5 16 4 -28.5 17 4 -28.5 
18 4 -28.5 19 4 -28.5 20 4 -28.5 
0 5 -28.5 1 5 -28.5 2 5 -28.5 
3 5 -28.5 4 5 -28.5 5 5 -28.5 
6 5 -28.5 7 5 -28.5 8 5 -28.5 
9 5 -28.5 10 5 -28.5 11 5 -28.5 
12 5 -28.5 13 5 -28.5 14 5 -28.5 
15 5 -28.5 16 5 -28.5 17 5 -28.5 
18 5 -28.5 19 5 -28.5 20 5 -28.5 
0 6 -28.5 1 6 -28.5 2 6 -28.5 
3 6 -28.5 4 6 -28.5 5 6 -28.5 
6 6 -28.5 7 6 -28.5 8 6 -28.5 
9 6 -28.5 10 6 -28.5 11 6 -28.5 
12 6 -28.5 13 6 -28.5 14 6 -28.5 
15 6 -28.5 16 6 -28.5 17 6 -28.5 
18 6 -28.5 19 6 -28.5 20 6 -28.5 
0 7 -28.5 1 7 -28.5 2 7 -28.5 
3 7 -28.5 4 7 -28.5 5 7 -28.5 
6 7 -28.5 7 7 -28.5 8 7 -28.5 
9 7 -28.5 10 7 -28.5 11 7 -28.5 
12 7 -28.5 13 7 -28.5 14 7 -28.5 
15 7 -28.5 16 7 -28.5 17 7 -28.5 
18 7 -28.5 19 7 -28.5 20 7 -28.5 
0 8 -28.5 1 8 -28.5 2 8 -28.5 
3 8 -28.5 4 8 -28.5 5 8 -28.5 
6 8 -28.5 7 8 -28.5 8 8 -28.5 
9 8 -28.5 10 8 -28.5 11 8 -28.5 
12 8 -28.5 13 8 -28.5 14 8 -28.5 
15 8 -28.5 16 8 -28.5 17 8 -28.5 
18 8 -28.5 19 8 -28.5 20 8 -28.5 
0 9 -28.5 1 9 -28.5 2 9 -28.5 
3 9 -28.5 4 9 -28.5 5 9 -28.5 
6 9 -28.5 7 9 -28.5 8 9 -28.5 
9 9 -28.5 10 9 -28.5 11 9 -28.5 
12 9 -28.5 13 9 -28.5 14 9 -28.5 
15 9 -28.5 16 9 -28.5 17 9 -28.5 
18 9 -28.5 19 9 -28.5 20 9 -28.5 
0 10 -28.5 1 10 -28.5 2 10 -28.5 
3 10 -28.5 4 10 -28.5 5 10 -28.5 
6 10 -28.5 7 10 -28.5 8 10 -28.5 
9 10 -28.5 10 10 -28.5 11 10 -28.5 
12 10 -28.5 13 10 -28.5 14 10 -28.5 
15 10 -28.5 16 10 -28.5 17 10 -28.5 
18 10 -28.5 19 10 -28.5 20 10 -28.5 
0 11 -28.5 1 11 -28.5 2 11 -28.5 
3 11 -28.5 4 11 -28.5 5 11 -28.5 
6 11 -28.5 7 11 -28.5 8 11 -28.5 
9 11 -28.5 10 11 -28.5 11 11 -28.5 
12 11 -28.5 13 11 -28.5 14 11 -28.5 
15 11 -28.5 16 11 -28.5 17 11 -28.5 
18 11 -28.5 19 11 -28.5 20 11 -28.5 
0 12 -28.5 1 12 -28.5 2 12 -28.5 
3 12 -28.5 4 12 -28.5 5 12 -28.5 
6 12 -28.5 7 12 -28.5 8 12 -28.5 
9 12 -28.5 10 12 -28.5 11 12 -28.5 
12 12 -28.5 13 12 -28.5 14 12 -28.5 
15 12 -28.5 16 12 -28.5 17 12 -28.5 
18 12 -28.5 19 12 -28.5 20 12 -28.5 
0 13 -28.5 1 13 -28.5 2 13 -28.5 
3 13 -28.5 4 13 -28.5 5 13 -28.5 
6 13 -28.5 7 13 -28.5 8 13 -28.5 
9 13 -28.5 10 13 -28.5 11 13 -28.5 
12 13 -28.5 13 13 -28.5 14 13 -28.5 
15 13 -28.5 16 13 -28.5 17 13 -28.5 
18 13 -28.5 19 13 -28.5 20 13 -28.5 
0 14 -28.5 1 14 -28.5 2 14 -28.5 
3 14 -28.5 4 14 -28.5 5 14 -28.5 
6 14 -28.5 7 14 -28.5 8 14 -28.5 
9 14 -28.5 10 14 -28.5 11 14 -28.5 
12 14 -28.5 13 14 -28.5 14 14 -28.5 
15 14 -28.5 16 14 -28.5 17 14 -28.5 
18 14 -28.5 19 14 -28.5 20 14 -28.5 
0 15 -28.5 1 15 -28.5 2 15 -28.5 
3 15 -28.5 4 15 -28.5 5 15 -28.5 
6 15 -28.5 7 15 -28.5 8 15 -28.5 
9 15 -28.5 10 15 -28.5 11 15 -28.5 
12 15 -28.5 13 15 -28.5 14 15 -28.5 
15 15 -28.5 16 15 -28.5 17 15 -28.5 
18 15 -28.5 19 15 -28.5 20 15 -28.5 
0 16 -28.5 1 16 -28.5 2 16 -28.5 
3 16 -28.5 4 16 -28.5 5 16 -28.5 
6 16 -28.5 7 16 -28.5 8 16 -28.5 
9 16 -28.5 10 16 -28.5 11 16 -28.5 
12 16 -28.5 13 16 -28.5 14 16 -28.5 
15 16 -28.5 16 16 -28.5 17 16 -28.5 
18 16 -28.5 19 16 -28.5 20 16 -28.5 
0 17 -28.5 1 17 -28.5 2 17 -28.5 
3 17 -28.5 4 17 -28.5 5 17 -28.5 
6 17 -28.5 7 17 -28.5 8 17 -28.5 
9 17 -28.5 10 17 -28.5 11 17 -28.5 
12 17 -28.5 13 17 -28.5 14 17 -28.5 
15 17 -28.5 16 17 -28.5 17 17 -28.5 
18 17 -28.5 19 17 -28.5 20 17 -28.5 
0 18 -28.5 1 18 -28.5 2 18 -28.5 
3 18 -28.5 4 18 -28.5 5 18 -28.5 
6 18 -28.5 7 18 -28.5 8 18 -28.5 
9 18 -28.5 10 18 -28.5 11 18 -28.5 
12 18 -28.5 13 18 -28.5 14 18 -28.5 
15 18 -28.5 16 18 -28.5 17 18 -28.5 
18 18 -28.5 19 18 -28.5 20 18 -28.5 
0 19 -28.5 1 19 -28.5 2 19 -28.5 
3 19 -28.5 4 19 -28.5 5 19 -28.5 
6 19 -28.5 7 19 -28.5 8 19 -28.5 
9 19 -28.5 10 19 -28.5 11 19 -28.5 
12 19 -28.5 13 19 -28.5 14 19 -28.5 
15 19 -28.5 16 19 -28.5 17 19 -28.5 
18 19 -28.5 19 19 -28.5 20 19 -28.5 
0 20 -28.5 1 20 -28.5 2 20 -28.5 
3 20 -28.5 4 20 -28.5 5 20 -28.5 
6 20 -28.5 7 20 -28.5 8 20 -28.5 
9 20 -28.5 10 20 -28.5 11 20 -28.5 
12 20 -28.5 13 20 -28.5 14 20 -28.5 
15 20 -28.5 16 20 -28.5 17 20 -28.5 
18 20 -28.5 19 20 -28.5 20 20 -28.5 
0 0 -27 1 0 -27 2 0 -27 
3 0 -27 4 0 -27 5 0 -27 
6 0 -27 7 0 -27 8 0 -27 
9 0 -27 10 0 -27 11 0 -27 
12 0 -27 13 0 -27 14 0 -27 
15 0 -27 16 0 -27 17 0 -27 
18 0 -27 19 0 -27 20 0 -27 
0 1 -27 1 1 -27 2 1 -27 
3 1 -27 4 1 -27 5 1 -27 
6 1 -27 7 1 -27 8 1 -27 
9 1 -27 10 1 -27 11 1 -27 
12 1 -27 13 1 -27 14 1 -27 
15 1 -27 16 1 -27 17 1 -27 
18 1 -27 19 1 -27 20 1 -27 
0 2 -27 1 2 -27 2 2 -27 
3 2 -27 4 2 -27 5 2 -27 
6 2 -27 7 2 -27 8 2 -27 
9 2 -27 10 2 -27 11 2 -27 
12 2 -27 13 2 -27 14 2 -27 
15 2 -27 16 2 -27 17 2 -27 
18 2 -27 19 2 -27 20 2 -27 
0 3 -27 1 3 -27 2 3 -27 
3 3 -27 4 3 -27 5 3 -27 
6 3 -27 7 3 -27 8 3 -27 
9 3 -27 10 3 -27 11 3 -27 
12 3 -27 13 3 -27 14 3 -27 
15 3 -27 16 3 -27 17 3 -27 
18 3 -27 19 3 -27 20 3 -27 
[...]
POINT_DATA 9261
FIELD FieldData 8
U 3 9261 double
0 0 0 0 0 0 0 0 0 
0 0 0 0 0 0 0 0 0 
0 0 0 0 0 0 0 0 0 
0 0 0 0 0 0 0 0 0 
0 0 0 0 0 0 0 0 0 
0 0 0 0 0 0 0 0 0 
0 0 0 0 0 0 0 0 0 
0 0 0 0 0 0 0 0 0 
0 0 0 0 0 0 0 0 0 
0 0 0 0 0 0 0 0 0 
0 0 0 0 0 0 0 0 0 
0 0 0 0 0 0 0 0 0 
0 0 0 0 0 0 0 0 0 
0 0 0 0 0 0 0 0 0 
0 0 0 0 0 0 0 0 0 
0 0 0 0 0 0 0 0 0 
0 0 0 0 0 0 0 0 0 
0 0 0 0 0 0 0 0 0 
0 0 0 0 0 0 0 0 0 
0 0 0 0 0 0 0 0 0 
0 0 0 0 0 0 0 0 0 
0 0 0 0 0 0 0 0 0 
0 0 0 0 0 0 0 0 0 
0 0 0 0 0 0 0 0 0 
0 0 0 0 0 0 0 0 0 
0 0 0 0 0 0 0 0 0 
0 0 0 0 0 0 0 0 0 
0 0 0 0 0 0 0 0 0 
0 0 0 0 0 0 0 0 0 
0 0 0 0 0 0 0 0 0 
0 0 0 0 0 0 0 0 0 
0 0 0 0 0 0 0 0 0 
0 0 0 0 0 0 0 0 0 
0 0 0 0 0 0 0 0 0 
0 0 0 0 0 0 0 0 0 
0 0 0 0 0 0 0 0 0 
0 0 0 0 0 0 0 0 0 
0 0 0 0 0 0 0 0 0 
0 0 0 0 0 0 0 0 0 
0 0 0 0 0 0 0 0 0 
0 0 0 0 0 0 0 0 0 
0 0 0 0 0 0 0 0 0 
0 0 0 0 0 0 0 0 0 
0 0 0 0 0 0 0 0 0 
0 0 0 0 0 0 0 0 0 
0 0 0 0 0 0 0 0 0 
0 0 0 0 0 0 0 0 0 
0 0 0 0 0 0 0 0 0 
0 0 0 0 0 0 0 0 0 
0 0 0 0 0 0 0 0 0 
0 0 0 0 0 0 0 0 0 
0 0 0 0 0 0 0 0 0 
0 0 0 0 0 0 0 0 0 
0 0 0 0 0 0 0 0 0 
0 0 0 0 0 0 0 0 0 
0 0 0 0 0 0 0 0 0 
0 0 0 0 0 0 0 0 0 
0 0 0 0 0 0 0 0 0 
0 0 0 0 0 0 0 0 0 
0 0 0 0 0 0 0 0 0 
0 0 0 0 0 0 0 0 0 
0 0 0 0 0 0 0 0 0 
0 0 0 0 0 0 0 0 0 
0 0 0 0 0 0 0 0 0 
0 0 0 0 0 0 0 0 0 
0 0 0 0 0 0 0 0 0 
0 0 0 0 0 0 0 0 0 
0 0 0 0 0 0 0 0 0 
0 0 0 0 0 0 0 0 0 
0 0 0 0 0 0 0 0 0 
0 0 0 0 0 0 0 0 0 
0 0 0 0 0 0 0 0 0 
0 0 0 0 0 0 0 0 0 
0 0 0 0 0 0 0 0 0 
0 0 0 0 0 0 0 0 0 
0 0 0 0 0 0 0 0 0 
0 0 0 0 0 0 0 0 0 
0 0 0 0 0 0 0 0 0 
0 0 0 0 0 0 0 0 0 
0 0 0 0 0 0 0 0 0 
0 0 0 0 0 0 0 0 0 
0 0 0 0 0 0 0 0 0 
0 0 0 0 0 0 0 0 0 
0 0 0 0 0 0 0 0 0 
0 0 0 0 0 0 0 0 0 
0 0 0 0 0 0 0 0 0 
0 0 0 0 0 0 0 0 0 
0 0 0 0 0 0 0 0 0 
0 0 0 0 0 0 0 0 0 
0 0 0 0 0 0 0 0 0 
0 0 0 0 0 0 0 0 0 
0 0 0 0 0 0 0 0 0 
0 0 0 0 0 0 0 0 0 
0 0 0 0 0 0 0 0 0 
0 0 0 0 0 0 0 0 0 
0 0 0 0 0 0 0 0 0 
0 0 0 0 0 0 0 0 0 
0 0 0 0 0 0 0 0 0 
0 0 0 0 0 0 0 0 0 
0 0 0 0 0 0 0 0 0 
0 0 0 0 0 0 0 0 0 
0 0 0 0 0 0 0 0 0 
0 0 0 0 0 0 0 0 0 
0 0 0 0 0 0 0 0 0 
0 0 0 0 0 0 0 0 0 
0 0 0 0 0 0 0 0 0 
0 0 0 0 0 0 0 0 0 
0 0 0 0 0 0 0 0 0 
0 0 0 0 0 0 0 0 0 
0 0 0 0 0 0 0 0 0 
0 0 0 0 0 0 0 0 0 
0 0 0 0 0 0 0 0 0 
0 0 0 0 0 0 0 0 0 
0 0 0 0 0 0 0 0 0 
0 0 0 0 0 0 0 0 0 
0 0 0 0 0 0 0 0 0 
0 0 0 0 0 0 0 0 0 
0 0 0 0 0 0 0 0 0 
0 0 0 0 0 0 0 0 0 
0 0 0 0 0 0 0 0 0 
0 0 0 0 0 0 0 0 0 
0 0 0 0 0 0 0 0 0 
0 0 0 0 0 0 0 0 0 
0 0 0 0 0 0 0 0 0 
0 0 0 0 0 0 0 0 0 
0 0 0 0 0 0 0 0 0 
0 0 0 0 0 0 0 0 0 
0 0 0 0 0 0 0 0 0 
0 0 0 0 0 0 0 0 0 
0 0 0 0 0 0 0 0 0 
0 0 0 0 0 0 0 0 0 
0 0 0 0 0 0 0 0 0 
0 0 0 0 0 0 0 0 0 
0 0 0 0 0 0 0 0 0 
0 0 0 0 0 0 0 0 0 
0 0 0 0 0 0 0 0 0 
0 0 0 0 0 0 0 0 0 
0 0 0 0 0 0 0 0 0 
0 0 0 0 0 0 0 0 0 
0 0 0 0 0 0 0 0 0 
0 0 0 0 0 0 0 0 0 
0 0 0 0 0 0 0 0 0 
0 0 0 0 0 0 0 0 0 
0 0 0 0 0 0 0 0 0 
0 0 0 0 0 0 0 0 0 
0 0 0 0 0 0 0 0 0 
0 0 0 0 0 0 0 0 0 
0 0 0.000346074 -9.31019e-05 0 0.000341841 -0.000183952 0 0.000329239 
-0.000270344 0 0.000308563 -0.000350167 0 0.000280299 -0.000421453 0 0.000245115 
-0.000482425 0 0.000203857 -0.000531545 0 0.000157526 -0.000567563 0 0.000107262 
-0.000589553 0 5.43121e-05 -0.000596947 0 -5.35891e-10 -0.000589551 0 -5.4313e-05 
-0.000567559 0 -0.000107263 -0.00053154 0 -0.000157526 -0.000482419 0 -0.000203855 
-0.000421447 0 -0.000245112 -0.000350161 0 -0.000280295 -0.000270339 0 -0.000308559 
-0.000183948 0 -0.000329234 -9.30999e-05 0 -0.000341835 0 0 -0.000346068 
0 1.90689e-06 0.000346277 -9.31297e-05 1.885e-06 0.000342042 -0.000184007 1.81951e-06 0.000329434 
-0.000270426 1.71107e-06 0.000308747 -0.000350275 1.56097e-06 0.000280467 -0.000421585 1.37142e-06 0.000245263 
-0.000482578 1.14583e-06 0.000203981 -0.000531717 8.88991e-07 0.000157623 -0.000567749 6.07109e-07 0.000107329 
-0.000589747 3.077e-07 5.43459e-05 -0.000597143 -7.34067e-10 -6.1073e-10 -0.000589745 -3.09159e-07 -5.43469e-05 
-0.000567745 -6.08541e-07 -0.000107329 -0.000531712 -8.90382e-07 -0.000157623 -0.000482572 -1.14717e-06 -0.00020398 
-0.000421579 -1.3727e-06 -0.000245261 -0.000350269 -1.56219e-06 -0.000280463 -0.000270421 -1.71224e-06 -0.000308743 
-0.000184003 -1.82064e-06 -0.000329429 -9.31278e-05 -1.8861e-06 -0.000342036 0 -1.90799e-06 -0.000346271 
0 3.62747e-06 0.000346868 -9.32107e-05 3.58581e-06 0.000342626 -0.000184168 3.46121e-06 0.000329999 
-0.000270666 3.25488e-06 0.00030928 -0.00035059 2.96931e-06 0.000280955 -0.00042197 2.6087e-06 0.000245694 
-0.000483026 2.17956e-06 0.000204343 -0.000532216 1.69098e-06 0.000157905 -0.000568287 1.15479e-06 0.000107522 
-0.00059031 5.85274e-07 5.44438e-05 -0.000597715 -1.39715e-09 -8.28112e-10 -0.000590309 -5.88051e-07 -5.44453e-05 
-0.000568284 -1.15751e-06 -0.000107523 -0.000532211 -1.69362e-06 -0.000157905 -0.000483019 -2.18211e-06 -0.000204342 
-0.000421964 -2.61114e-06 -0.000245692 -0.000350584 -2.97164e-06 -0.000280952 -0.000270661 -3.25711e-06 -0.000309276 
-0.000184164 -3.46336e-06 -0.000329994 -9.32087e-05 -3.58791e-06 -0.00034262 0 -3.62955e-06 -0.000346862 
0 4.99352e-06 0.000347788 -9.3337e-05 4.93616e-06 0.000343536 -0.00018442 4.76458e-06 0.000330879 
-0.000271039 4.48048e-06 0.000310111 -0.000351081 4.08728e-06 0.000281716 -0.00042257 3.59081e-06 0.000246366 
-0.000483723 3.00002e-06 0.000204906 -0.000532995 2.32747e-06 0.000158344 -0.000569127 1.58942e-06 0.000107822 
-0.000591189 8.05545e-07 5.45964e-05 -0.000598606 -1.92487e-09 -1.16726e-09 -0.000591187 -8.09371e-07 -5.45986e-05 
-0.000569123 -1.59318e-06 -0.000107824 -0.000532989 -2.33111e-06 -0.000158344 -0.000483716 -3.00353e-06 -0.000204906 
-0.000422563 -3.59417e-06 -0.000246364 -0.000351075 -4.09048e-06 -0.000281713 -0.000271034 -4.48355e-06 -0.000310107 
-0.000184416 -4.76754e-06 -0.000330875 -9.3335e-05 -4.93906e-06 -0.000343531 0 -4.9964e-06 -0.000347782 
0 5.87134e-06 0.000348948 -9.34964e-05 5.80386e-06 0.000344684 -0.000184737 5.60203e-06 0.000331989 
-0.000271511 5.26787e-06 0.000311158 -0.000351701 4.80543e-06 0.000282675 -0.000423327 4.22159e-06 0.000247212 
-0.000484603 3.52691e-06 0.000205616 -0.000533977 2.73615e-06 0.000158896 -0.000570187 1.86846e-06 0.000108201 
-0.000592297 9.46953e-07 5.47886e-05 -0.000599731 -2.26557e-09 -1.59561e-09 -0.000592295 -9.51456e-07 -5.47916e-05 
-0.000570183 -1.87288e-06 -0.000108203 -0.000533972 -2.74044e-06 -0.000158898 -0.000484596 -3.53104e-06 -0.000205617 
-0.000423321 -4.22555e-06 -0.000247211 -0.000351694 -4.80921e-06 -0.000282673 -0.000271506 -5.27149e-06 -0.000311155 
-0.000184733 -5.60552e-06 -0.000331985 -9.34944e-05 -5.80727e-06 -0.000344679 0 -5.87472e-06 -0.000348943 
0 6.17476e-06 0.000350234 -9.36736e-05 6.10376e-06 0.000345956 -0.00018509 5.89141e-06 0.00033322 
-0.000272035 5.53985e-06 0.000312319 -0.000352389 5.05337e-06 0.000283738 -0.000424169 4.43924e-06 0.00024815 
-0.00048558 3.7086e-06 0.000206403 -0.000535068 2.87701e-06 0.000159509 -0.000571365 1.9646e-06 0.00010862 
-0.000593528 9.95657e-07 5.50017e-05 -0.00060098 -2.38536e-09 -2.07172e-09 -0.000593526 -1.0004e-06 -5.50056e-05 
-0.000571361 -1.96926e-06 -0.000108624 -0.000535063 -2.88153e-06 -0.000159512 -0.000485573 -3.71295e-06 -0.000206404 
-0.000424162 -4.44341e-06 -0.00024815 -0.000352382 -5.05734e-06 -0.000283737 -0.00027203 -5.54365e-06 -0.000312316 
-0.000185085 -5.89508e-06 -0.000333217 -9.36715e-05 -6.10735e-06 -0.000345952 0 -6.17832e-06 -0.00035023 
0 5.87375e-06 0.000351521 -9.38512e-05 5.80618e-06 0.000347229 -0.000185443 5.60408e-06 0.000334451 
-0.00027256 5.26954e-06 0.00031348 -0.000353079 4.80664e-06 0.000284802 -0.000425012 4.22234e-06 0.000249088 
-0.000486559 3.52728e-06 0.00020719 -0.000536162 2.73625e-06 0.000160122 -0.000572544 1.86843e-06 0.00010904 
-0.000594762 9.46901e-07 5.52147e-05 -0.000602232 -2.27166e-09 -2.54917e-09 -0.000594759 -9.51416e-07 -5.52196e-05 
-0.00057254 -1.87286e-06 -0.000109044 -0.000536156 -2.74055e-06 -0.000160125 -0.000486553 -3.53142e-06 -0.000207192 
-0.000425004 -4.22631e-06 -0.000249089 -0.000353072 -4.81042e-06 -0.000284801 -0.000272555 -5.27316e-06 -0.000313479 
-0.000185439 -5.60758e-06 -0.000334449 -9.3849e-05 -5.80959e-06 -0.000347226 0 -5.87713e-06 -0.000351518 
0 4.99742e-06 0.000352683 -9.40117e-05 4.93991e-06 0.000348379 -0.000185763 4.7679e-06 0.000335563 
-0.000273035 4.48317e-06 0.000314529 -0.000353703 4.08923e-06 0.000285762 -0.000425774 3.59202e-06 0.000249935 
-0.000487445 3.00061e-06 0.0002079 -0.00053715 2.32763e-06 0.000160674 -0.00057361 1.58937e-06 0.000109418 
-0.000595876 8.05459e-07 5.54068e-05 -0.000603363 -1.93472e-09 -2.98104e-09 -0.000595874 -8.09304e-07 -5.54126e-05 
-0.000573606 -1.59314e-06 -0.000109423 -0.000537144 -2.3313e-06 -0.000160679 -0.000487438 -3.00414e-06 -0.000207903 
-0.000425766 -3.5954e-06 -0.000249936 -0.000353696 -4.09245e-06 -0.000285762 -0.000273029 -4.48625e-06 -0.000314528 
-0.000185758 -4.77088e-06 -0.000335561 -9.40095e-05 -4.94282e-06 -0.000348376 0 -5.00031e-06 -0.00035268 
0 3.63137e-06 0.000353606 -9.41394e-05 3.58956e-06 0.000349291 -0.000186017 3.46453e-06 0.000336445 
-0.000273413 3.25757e-06 0.000315361 -0.000354198 2.97126e-06 0.000286523 -0.000426379 2.60992e-06 0.000250606 
-0.000488149 2.18016e-06 0.000208463 -0.000537936 1.69114e-06 0.000161113 -0.000574458 1.15473e-06 0.000109718 
-0.000596762 5.85189e-07 5.55592e-05 -0.000604262 -1.407e-09 -3.32455e-09 -0.00059676 -5.87985e-07 -5.55657e-05 
-0.000574453 -1.15748e-06 -0.000109724 -0.00053793 -1.6938e-06 -0.000161118 -0.000488142 -2.18272e-06 -0.000208467 
-0.000426372 -2.61237e-06 -0.000250608 -0.000354191 -2.9736e-06 -0.000286524 -0.000273407 -3.25982e-06 -0.00031536 
-0.000186012 -3.4667e-06 -0.000336444 -9.41371e-05 -3.59168e-06 -0.000349289 0 -3.63347e-06 -0.000353603 
0 1.9093e-06 0.000354198 -9.42215e-05 1.88731e-06 0.000349877 -0.00018618 1.82156e-06 0.000337012 
-0.000273656 1.71273e-06 0.000315895 -0.000354517 1.56217e-06 0.000287013 -0.000426769 1.37217e-06 0.000251038 
-0.000488601 1.1462e-06 0.000208825 -0.000538441 8.8909e-07 0.000161395 -0.000575002 6.07079e-07 0.000109911 
-0.000597331 3.07646e-07 5.56571e-05 -0.00060484 -7.40159e-10 -3.54546e-09 -0.000597329 -3.09117e-07 -5.5664e-05 
-0.000574998 -6.08523e-07 -0.000109917 -0.000538435 -8.90492e-07 -0.0001614 -0.000488594 -1.14755e-06 -0.000208829 
-0.000426761 -1.37346e-06 -0.00025104 -0.00035451 -1.56341e-06 -0.000287014 -0.00027365 -1.71391e-06 -0.000315895 
-0.000186176 -1.8227e-06 -0.000337011 -9.42192e-05 -1.88843e-06 -0.000349875 0 -1.9104e-06 -0.000354196 
0 -7.15419e-17 0.000354402 -9.42498e-05 -7.13786e-17 0.000350079 -0.000186236 -7.12126e-17 0.000337207 
-0.000273739 -7.07717e-17 0.00031608 -0.000354627 -7.01586e-17 0.000287181 -0.000426903 -6.94764e-17 0.000251187 
-0.000488757 -6.86568e-17 0.00020895 -0.000538615 -6.76803e-17 0.000161492 -0.00057519 -6.67773e-17 0.000109978 
-0.000597528 -6.5748e-17 5.56908e-05 -0.000605039 -6.47474e-17 -3.62165e-09 -0.000597526 -6.3584e-17 -5.56978e-05 
-0.000575186 -6.26406e-17 -0.000109984 -0.000538609 -6.15691e-17 -0.000161497 -0.00048875 -6.04877e-17 -0.000208954 
-0.000426896 -5.9921e-17 -0.000251189 -0.00035462 -5.93502e-17 -0.000287182 -0.000273733 -5.88671e-17 -0.000316079 
-0.000186232 -5.84623e-17 -0.000337206 -9.42475e-05 -5.8233e-17 -0.000350077 0 -5.80697e-17 -0.0003544 
0 -1.9093e-06 0.000354198 -9.42215e-05 -1.88731e-06 0.000349877 -0.00018618 -1.82156e-06 0.000337012 
-0.000273656 -1.71273e-06 0.000315895 -0.000354517 -1.56217e-06 0.000287013 -0.000426769 -1.37217e-06 0.000251038 
-0.000488601 -1.1462e-06 0.000208825 -0.000538441 -8.8909e-07 0.000161395 -0.000575002 -6.07079e-07 0.000109911 
-0.000597331 -3.07646e-07 5.56571e-05 -0.00060484 7.40158e-10 -3.54546e-09 -0.000597329 3.09117e-07 -5.5664e-05 
-0.000574998 6.08523e-07 -0.000109917 -0.000538435 8.90492e-07 -0.0001614 -0.000488594 1.14755e-06 -0.000208829 
-0.000426761 1.37346e-06 -0.00025104 -0.00035451 1.56341e-06 -0.000287014 -0.00027365 1.71391e-06 -0.000315895 
-0.000186176 1.8227e-06 -0.000337011 -9.42192e-05 1.88843e-06 -0.000349875 0 1.9104e-06 -0.000354196 
0 -3.63137e-06 0.000353606 -9.41394e-05 -3.58956e-06 0.000349291 -0.000186017 -3.46453e-06 0.000336445 
-0.000273413 -3.25757e-06 0.000315361 -0.000354198 -2.97126e-06 0.000286523 -0.000426379 -2.60992e-06 0.000250606 
-0.000488149 -2.18016e-06 0.000208463 -0.000537936 -1.69114e-06 0.000161113 -0.000574458 -1.15473e-06 0.000109718 
-0.000596762 -5.85189e-07 5.55592e-05 -0.000604262 1.407e-09 -3.32455e-09 -0.00059676 5.87985e-07 -5.55657e-05 
-0.000574453 1.15748e-06 -0.000109724 -0.00053793 1.6938e-06 -0.000161118 -0.000488142 2.18272e-06 -0.000208467 
-0.000426372 2.61237e-06 -0.000250608 -0.000354191 2.9736e-06 -0.000286524 -0.000273407 3.25982e-06 -0.00031536 
-0.000186012 3.4667e-06 -0.000336444 -9.41371e-05 3.59168e-06 -0.000349289 0 3.63347e-06 -0.000353603 
0 -4.99742e-06 0.000352683 -9.40117e-05 -4.93991e-06 0.000348379 -0.000185763 -4.7679e-06 0.000335563 
-0.000273035 -4.48317e-06 0.000314529 -0.000353703 -4.08923e-06 0.000285762 -0.000425774 -3.59202e-06 0.000249935 
-0.000487445 -3.00061e-06 0.0002079 -0.00053715 -2.32763e-06 0.000160674 -0.00057361 -1.58937e-06 0.000109418 
-0.000595876 -8.05459e-07 5.54068e-05 -0.000603363 1.93472e-09 -2.98104e-09 -0.000595874 8.09304e-07 -5.54126e-05 
-0.000573606 1.59314e-06 -0.000109423 -0.000537144 2.3313e-06 -0.000160679 -0.000487438 3.00414e-06 -0.000207903 
-0.000425766 3.5954e-06 -0.000249936 -0.000353696 4.09245e-06 -0.000285762 -0.000273029 4.48625e-06 -0.000314528 
-0.000185758 4.77088e-06 -0.000335561 -9.40095e-05 4.94282e-06 -0.000348376 0 5.00031e-06 -0.00035268 
0 -5.87375e-06 0.000351521 -9.38512e-05 -5.80618e-06 0.000347229 -0.000185443 -5.60408e-06 0.000334451 
-0.00027256 -5.26954e-06 0.00031348 -0.000353079 -4.80664e-06 0.000284802 -0.000425012 -4.22234e-06 0.000249088 
-0.000486559 -3.52728e-06 0.00020719 -0.000536162 -2.73625e-06 0.000160122 -0.000572544 -1.86843e-06 0.00010904 
-0.000594762 -9.46901e-07 5.52147e-05 -0.000602232 2.27166e-09 -2.54917e-09 -0.000594759 9.51416e-07 -5.52196e-05 
-0.00057254 1.87286e-06 -0.000109044 -0.000536156 2.74055e-06 -0.000160125 -0.000486553 3.53142e-06 -0.000207192 
-0.000425004 4.22631e-06 -0.000249089 -0.000353072 4.81042e-06 -0.000284801 -0.000272555 5.27316e-06 -0.000313479 
-0.000185439 5.60758e-06 -0.000334449 -9.3849e-05 5.80959e-06 -0.000347226 0 5.87713e-06 -0.000351518 
0 -6.17476e-06 0.000350234 -9.36736e-05 -6.10376e-06 0.000345956 -0.00018509 -5.89141e-06 0.00033322 
-0.000272035 -5.53985e-06 0.000312319 -0.000352389 -5.05337e-06 0.000283738 -0.000424169 -4.43924e-06 0.00024815 
-0.00048558 -3.7086e-06 0.000206403 -0.000535068 -2.87701e-06 0.000159509 -0.000571365 -1.9646e-06 0.00010862 
-0.000593528 -9.95657e-07 5.50017e-05 -0.00060098 2.38536e-09 -2.07172e-09 -0.000593526 1.0004e-06 -5.50056e-05 
-0.000571361 1.96926e-06 -0.000108624 -0.000535063 2.88153e-06 -0.000159512 -0.000485573 3.71295e-06 -0.000206404 
-0.000424162 4.44341e-06 -0.00024815 -0.000352382 5.05734e-06 -0.000283737 -0.00027203 5.54365e-06 -0.000312316 
-0.000185085 5.89508e-06 -0.000333217 -9.36715e-05 6.10735e-06 -0.000345952 0 6.17832e-06 -0.00035023 
0 -5.87134e-06 0.000348948 -9.34964e-05 -5.80386e-06 0.000344684 -0.000184737 -5.60203e-06 0.000331989 
-0.000271511 -5.26787e-06 0.000311158 -0.000351701 -4.80543e-06 0.000282675 -0.000423327 -4.22159e-06 0.000247212 
-0.000484603 -3.52691e-06 0.000205616 -0.000533977 -2.73615e-06 0.000158896 -0.000570187 -1.86846e-06 0.000108201 
-0.000592297 -9.46953e-07 5.47886e-05 -0.000599731 2.26557e-09 -1.59561e-09 -0.000592295 9.51456e-07 -5.47916e-05 
-0.000570183 1.87288e-06 -0.000108203 -0.000533972 2.74044e-06 -0.000158898 -0.000484596 3.53104e-06 -0.000205617 
-0.000423321 4.22555e-06 -0.000247211 -0.000351694 4.80921e-06 -0.000282673 -0.000271506 5.27149e-06 -0.000311155 
-0.000184733 5.60552e-06 -0.000331985 -9.34944e-05 5.80727e-06 -0.000344679 0 5.87472e-06 -0.000348943 
0 -4.99352e-06 0.000347788 -9.3337e-05 -4.93616e-06 0.000343536 -0.00018442 -4.76458e-06 0.000330879 
-0.000271039 -4.48048e-06 0.000310111 -0.000351081 -4.08728e-06 0.000281716 -0.00042257 -3.59081e-06 0.000246366 
-0.000483723 -3.00002e-06 0.000204906 -0.000532995 -2.32747e-06 0.000158344 -0.000569127 -1.58942e-06 0.000107822 
-0.000591189 -8.05545e-07 5.45964e-05 -0.000598606 1.92487e-09 -1.16726e-09 -0.000591187 8.09371e-07 -5.45986e-05 
-0.000569123 1.59318e-06 -0.000107824 -0.000532989 2.33111e-06 -0.000158344 -0.000483716 3.00353e-06 -0.000204906 
-0.000422563 3.59417e-06 -0.000246364 -0.000351075 4.09048e-06 -0.000281713 -0.000271034 4.48355e-06 -0.000310107 
-0.000184416 4.76754e-06 -0.000330875 -9.3335e-05 4.93906e-06 -0.000343531 0 4.9964e-06 -0.000347782 
0 -3.62747e-06 0.000346868 -9.32107e-05 -3.58581e-06 0.000342626 -0.000184168 -3.46121e-06 0.000329999 
-0.000270666 -3.25488e-06 0.00030928 -0.00035059 -2.96931e-06 0.000280955 -0.00042197 -2.6087e-06 0.000245694 
-0.000483026 -2.17956e-06 0.000204343 -0.000532216 -1.69098e-06 0.000157905 -0.000568287 -1.15479e-06 0.000107522 
-0.00059031 -5.85274e-07 5.44438e-05 -0.000597715 1.39715e-09 -8.28112e-10 -0.000590309 5.88051e-07 -5.44453e-05 
-0.000568284 1.15751e-06 -0.000107523 -0.000532211 1.69362e-06 -0.000157905 -0.000483019 2.18211e-06 -0.000204342 
-0.000421964 2.61114e-06 -0.000245692 -0.000350584 2.97164e-06 -0.000280952 -0.000270661 3.25711e-06 -0.000309276 
-0.000184164 3.46336e-06 -0.000329994 -9.32087e-05 3.58791e-06 -0.00034262 0 3.62955e-06 -0.000346862 
0 -1.90689e-06 0.000346277 -9.31297e-05 -1.885e-06 0.000342042 -0.000184007 -1.81951e-06 0.000329434 
-0.000270426 -1.71107e-06 0.000308747 -0.000350275 -1.56097e-06 0.000280467 -0.000421585 -1.37142e-06 0.000245263 
-0.000482578 -1.14583e-06 0.000203981 -0.000531717 -8.88991e-07 0.000157623 -0.000567749 -6.07109e-07 0.000107329 
-0.000589747 -3.077e-07 5.43459e-05 -0.000597143 7.34067e-10 -6.1073e-10 -0.000589745 3.09159e-07 -5.43469e-05 
-0.000567745 6.08541e-07 -0.000107329 -0.000531712 8.90382e-07 -0.000157623 -0.000482572 1.14717e-06 -0.00020398 
-0.000421579 1.3727e-06 -0.000245261 -0.000350269 1.56219e-06 -0.000280463 -0.000270421 1.71224e-06 -0.000308743 
-0.000184003 1.82064e-06 -0.000329429 -9.31278e-05 1.8861e-06 -0.000342036 0 1.90799e-06 -0.000346271 
0 0 0.000346074 -9.31019e-05 0 0.000341841 -0.000183952 0 0.000329239 
-0.000270344 0 0.000308563 -0.000350167 0 0.000280299 -0.000421453 0 0.000245115 
-0.000482425 0 0.000203857 -0.000531545 0 0.000157526 -0.000567563 0 0.000107262 
-0.000589553 0 5.43121e-05 -0.000596947 0 -5.35891e-10 -0.000589551 0 -5.4313e-05 
-0.000567559 0 -0.000107263 -0.00053154 0 -0.000157526 -0.000482419 0 -0.000203855 
-0.000421447 0 -0.000245112 -0.000350161 0 -0.000280295 -0.000270339 0 -0.000308559 
-0.000183948 0 -0.000329234 -9.30999e-05 0 -0.000341835 0 0 -0.000346068 
0 0 0.000785459 -0.000167112 0 0.000775869 -0.000330192 0 0.000747316 
-0.000485288 0 0.000700457 -0.000628615 0 0.000636376 -0.000756638 0 0.000556576 
-0.00086616 0 0.000462959 -0.000954411 0 0.000357789 -0.00101913 0 0.00024365 
-0.00105865 0 0.00012338 -0.00107194 0 -1.32828e-09 -0.00105865 0 -0.000123382 
-0.00101913 0 -0.000243651 -0.000954402 0 -0.000357788 -0.000866149 0 -0.000462956 
-0.000756626 0 -0.00055657 -0.000628604 0 -0.000636366 -0.000485279 0 -0.000700445 
-0.000330185 0 -0.000747302 -0.000167108 0 -0.000775853 0 0 -0.000785443 
0 3.64101e-06 0.000786009 -0.000167166 3.60007e-06 0.000776413 -0.0003303 3.47741e-06 0.000747844 
-0.000485449 3.2737e-06 0.000700956 -0.000628827 2.99059e-06 0.000636834 -0.000756899 2.63141e-06 0.000556982 
-0.000866464 2.20189e-06 0.0004633 -0.000954753 1.71066e-06 0.000358056 -0.0010195 1.16951e-06 0.000243833 
-0.00105904 5.93176e-07 0.000123473 -0.00107234 -1.36242e-09 -1.52447e-09 -0.00105904 -5.95882e-07 -0.000123476 
-0.0010195 -1.17216e-06 -0.000243834 -0.000954743 -1.71322e-06 -0.000358055 -0.000866453 -2.20435e-06 -0.000463297 
-0.000756887 -2.63376e-06 -0.000556976 -0.000628816 -2.99281e-06 -0.000636825 -0.00048544 -3.27582e-06 -0.000700944 